  1.3088560e+00   1.1133056e-06
 -8.1329578e-01   7.1865311e-06
  9.7737618e-02   1.2453952e-06
  6.0845286e-01   1.3767823e-07
 -1.9643992e-01   2.2100226e-06
  4.3476129e-01   3.6454966e-07
 -7.1387172e-01   1.0387508e-06
  4.9659607e-01   6.6315815e-06
 -3.7679613e-01   3.5914136e-06
  3.2162368e-01   9.3753087e-08
 -5.1205999e-01   5.9499525e-05
 -3.1855710e-02   1.1264636e-05
 -9.0907794e-01   4.5059155e-06
  4.0807971e-01   1.2053850e-06
 -6.4253169e-01   1.4975859e-06
 -3.4840697e-01   1.0340406e-05
 -7.5408602e-06   3.6370659e-07
 -8.6410731e-01   4.7819083e-07
 -4.2947283e-01   3.6949123e-06
 -8.1875092e-01   9.2055899e-07
 -4.8993528e-01   4.4360348e-07
  1.3646407e-01   2.9030864e-05
 -1.1499816e-01   9.7492636e-09
  9.5729023e-01   1.5689739e-07
  1.2651260e-01   2.0052234e-05
  1.7101006e-04   1.7119914e-06
 -6.7260355e-01   3.8216271e-07
  5.3322058e-02   1.5018459e-05
 -3.5209394e-01   3.0125385e-08
  3.9155325e-01   4.3849758e-07
  3.1715649e-01   2.5939255e-07
  9.1184247e-01   1.0464082e-05
 -1.0135225e-01   2.0305528e-05
 -4.1616234e-01   1.2565543e-05
 -1.4203949e-01   1.0797907e-05
 -3.4714952e-01   8.9751311e-06
 -3.2326475e-01   2.0058485e-05
 -4.5587569e-01   2.6674701e-07
  7.8094912e-01   4.7492275e-08
 -1.0275290e+00   1.1089501e-06
  2.1058414e+00   4.4605840e-06
 -2.4723341e-01   9.9457138e-06
  4.0186015e-01   1.3341075e-05
  3.3419293e-01   4.0177898e-07
  3.1810933e-01   3.1854481e-06
 -3.0605835e-01   1.4839099e-05
 -4.3970283e-02   8.4612128e-07
 -1.9801535e-04   1.0337073e-06
  8.9386046e-01   7.0349290e-07
  3.3453774e-01   8.4680569e-06
 -3.7391718e-02   3.6280795e-05
 -2.8434262e-01   3.9147802e-05
  2.7390277e-01   3.0609106e-06
 -1.5758337e-01   1.2027285e-06
  8.9510584e-05   1.2308568e-07
 -2.8537054e-04   3.2892265e-06
  3.5384208e-05   1.0404721e-06
 -7.0192298e-05   2.2430083e-07
 -2.4694166e-06   1.1748559e-06
  7.4732721e-05   1.6124561e-06
 -1.6940729e-05   6.3857016e-07
 -1.7639184e-05   1.3402300e-06
  8.8525348e-06   4.1887979e-08
  1.2283565e-05   1.1888482e-07
 -2.6838939e-06   5.1067668e-06
 -4.6983532e-06   6.5759164e-06
  6.2369625e-05   2.2118253e-07
  7.1459806e-05   1.1687478e-06
  2.9744324e-06   3.8734140e-07
 -8.5597458e-06   4.5824900e-06
  3.7652084e-05   8.0165091e-07
 -3.1743250e-05   1.1349266e-06
  2.4418408e-04   1.6320253e-07
  5.4969394e-05   4.0885348e-07
 -5.6531344e-04   8.7068980e-07
 -7.8192032e-05   1.3423024e-06
  1.8961784e-05   8.7550015e-06
 -3.2819618e-05   1.9881336e-06
  5.1689649e-06   7.2110900e-08
  4.3040276e-05   8.6436836e-07
  1.3168241e-05   1.6009801e-06
  1.4318773e-04   5.6591691e-08
 -3.0713374e-05   2.4236294e-06
 -9.9214540e-06   4.6509881e-06
  8.3712912e-06   1.8065859e-05
 -4.9566417e-05   1.4002254e-07
 -8.3526553e-05   8.3144420e-07
  4.7774424e-06   2.8838092e-06
  2.2596976e-05   1.7762515e-06
  7.3758303e-05   5.0309490e-07
  4.6408095e-05   1.4343338e-05
  8.8697516e-06   1.4205802e-06
  1.5296125e-04   3.5821865e-06
  6.5688448e-07   2.0112445e-06
 -3.9865950e-05   5.4321947e-07
 -7.7243014e-05   6.7312705e-08
 -9.2840834e-05   1.5789989e-07
  2.6643409e-05   4.5722206e-07
  8.1871345e-05   7.7755590e-07
  2.1173548e-05   6.8974391e-06
 -2.1103806e-04   2.1648609e-07
 -3.4595436e-05   6.3299422e-06
  6.6563909e-05   6.8899931e-06
  1.0454134e-05   1.9456987e-08
 -4.9639615e-04   1.6555930e-07
 -1.8374794e-05   2.2500394e-06
  2.5390511e-05   3.9732399e-06
  4.1968758e-07   1.4005180e-07
  2.3958093e-01   9.5672794e-07
 -5.4079902e-01   1.0950662e-06
 -3.4577376e-01   1.6109544e-07
  1.8025849e+00   2.4497331e-07
 -7.6793754e-01   2.1397896e-06
  1.1267946e+00   1.6375985e-06
  3.0840752e-01   3.0381719e-07
  3.3000520e-01   7.9439388e-07
  2.3353286e+00   7.8059223e-08
  1.5591244e-02   2.7845541e-05
  1.0658132e+00   1.3754723e-04
 -6.6654587e-01   6.4975334e-06
 -6.5287706e-05   1.0255667e-06
 -5.6421256e-01   1.1782398e-06
 -1.9531833e-01   1.0630988e-05
 -1.6373819e+00   8.2580425e-07
 -1.0569344e-03   6.8160972e-07
 -1.1554093e+00   3.7494749e-06
  3.3292569e-02   1.5368216e-06
  7.0802525e-02   3.6474175e-06
  8.6298811e-01   3.9342403e-06
 -8.3895035e-02   7.9855281e-06
 -7.0758736e-01   1.3119623e-06
  3.1457561e-01   6.9713501e-06
  2.8594771e-01   1.9979882e-07
  1.2366918e-02   3.8773887e-05
  5.9803867e-01   1.1948848e-06
 -3.8536790e-01   4.8943630e-06
 -5.6525605e-06   4.1640733e-06
 -4.6379037e-02   1.1818354e-06
  1.1881755e-01   4.6334962e-06
  1.6078774e+00   7.3610563e-06
 -9.8201645e-06   2.4051818e-07
 -4.0285593e-01   1.1362347e-07
 -1.0577860e-01   5.2189342e-05
 -3.7803850e-01   1.5930939e-06
 -1.2149927e-01   1.5796454e-06
 -2.6576591e-01   1.6303884e-06
  2.2792633e-01   2.0310615e-06
  3.0252171e+00   4.2554743e-07
 -1.7068030e+00   2.7304262e-07
 -1.9287372e-05   1.2729073e-06
  2.4734890e-01   3.0086185e-05
 -1.5089422e-01   7.8938029e-07
 -1.0890537e-01   4.3363352e-06
  1.1632825e-01   1.1846449e-05
 -6.1874093e-06   6.8034481e-08
  9.3786985e-05   2.8815502e-06
 -2.1626782e-01   1.2327769e-05
  1.3225120e-03   4.1615976e-07
  7.0702539e-05   7.2273775e-07
 -2.9801295e-06   1.4244519e-06
 -5.7395171e-02   6.1750063e-05
  5.5968219e-01   1.7902945e-05
  1.1188319e-05   3.6243065e-07
  7.3580042e-05   2.0974126e-06
 -9.7596103e-06   5.9743543e-06
 -1.0756868e-04   1.8147692e-06
 -2.3933735e-05   1.0147868e-05
 -2.1983381e-01   3.1028510e-05
 -4.4323366e-07   6.2072700e-06
  6.0476399e-05   3.2524176e-06
 -1.4645510e-05   1.4220319e-07
  1.3052856e-05   1.7278489e-06
  3.3508528e-05   1.2071250e-06
 -8.8698929e-05   6.8496115e-06
 -7.6455843e-05   8.3616931e-07
 -8.7057226e-05   1.0029414e-06
  6.8653142e-05   4.0390828e-06
  9.2749605e-07   2.7590397e-07
 -8.1720711e-05   1.1857065e-05
 -3.5136363e-05   3.2534285e-06
  1.2422877e-05   1.4468889e-06
  2.4197448e-06   7.1195139e-08
 -1.8723762e-05   3.0154185e-06
 -9.1463327e-05   1.4565868e-06
 -9.2699564e-05   2.1279875e-05
  6.1677434e-05   3.5710798e-08
  1.3296112e-05   7.1204795e-08
 -9.9654972e-06   6.3695467e-07
 -2.3447254e-04   3.7972210e-08
  2.7894757e-06   2.9791640e-06
 -6.2438252e-05   5.9046756e-06
  1.3573858e-05   1.0613795e-06
  3.6283483e-05   1.7656440e-06
  5.7109655e-06   1.0625495e-06
  2.9264431e-05   2.1299518e-06
 -3.8348799e-06   1.1471785e-06
  9.0315596e-05   7.6254237e-06
 -5.3537551e-05   1.5235972e-06
  3.8352006e-05   1.2074016e-05
 -7.5281954e-05   1.0121413e-06
 -6.8014946e-05   1.2246129e-06
 -7.1621085e-05   9.9687924e-08
 -2.8756302e-04   1.7450274e-07
 -4.9175804e-05   4.6434600e-08
 -3.7763148e-05   2.2080831e-06
  2.9173245e-05   4.8380848e-06
 -6.9111238e-06   2.6926830e-06
  1.5993193e-05   4.9979570e-07
  7.7074468e-02   2.8019022e-08
 -3.3420427e-05   2.0519294e-06
 -8.1656937e-05   8.2818351e-06
 -1.8013541e-05   6.1040902e-07
 -1.9127170e-05   1.0101090e-07
 -2.0413239e-05   4.8015755e-07
  8.3527440e-05   4.4592784e-06
 -2.9289522e-05   1.5774375e-06
 -3.5605462e-05   3.3089717e-07
  4.2020383e-05   2.8971704e-07
  4.3485579e-05   7.9343208e-06
  5.7110296e-06   5.3651684e-06
 -4.6844802e-05   4.0221794e-06
  2.3217883e-05   1.4676138e-07
  1.9354142e-05   9.4207489e-06
 -4.2826181e-05   1.7359251e-06
 -5.8710935e-05   7.0574792e-08
  3.1763651e-05   1.3741032e-06
 -4.8313483e-05   1.1994166e-06
 -2.7101887e-06   2.0364677e-08
 -6.5071606e-07   7.9906868e-06
  3.3889617e-05   5.1946727e-09
  8.0871854e-05   7.1447507e-06
  4.6000605e-06   1.0969690e-07
  4.0495426e-05   2.2593690e-06
  3.0593648e-05   4.2499064e-06
  2.3057439e-06   2.9806456e-06
 -1.6283855e-05   8.3243058e-06
  9.0857993e-06   3.4853570e-06
 -1.2008422e-05   1.0788270e-06
 -3.6756250e-05   2.1547378e-07
  3.0808467e-06   2.5563368e-06
 -2.0914867e-05   8.4185003e-06
  2.3770952e-05   9.9274985e-06
  9.4847725e-05   8.6293164e-07
 -1.6017791e-05   1.0851754e-05
 -4.6336736e-05   4.9839940e-07
  6.6872608e-06   4.6662335e-06
  2.1728598e-05   3.3299589e-06
 -2.6437949e-05   2.3820819e-06
  5.4269267e-06   2.5940319e-06
 -1.8490158e-05   2.9850941e-07
 -8.1548933e-05   1.0037871e-05
 -3.7112004e-05   3.7949262e-06
 -1.4801240e-05   7.0307613e-07
  8.5509222e-05   4.0518212e-06
  1.5063698e-05   3.3306751e-06
  1.0769718e-06   4.1160323e-08
  3.4449564e-05   3.3139128e-07
 -2.7646345e-05   4.1205706e-08
  1.7523479e-04   3.6074505e-06
  1.5658635e-04   9.7853126e-07
  4.8718350e-05   1.1244625e-05
 -3.7326801e-05   2.0345115e-06
 -1.1514507e-04   8.6989070e-07
 -1.4980887e-04   4.7685380e-06
  4.5476259e-05   1.4755104e-06
  2.4230703e-06   7.2871870e-07
 -1.0323225e-04   3.9567172e-07
  9.7179138e-05   1.1876348e-06
 -4.7012359e-06   1.1599016e-06
 -4.5546773e-04   3.5374714e-07
 -2.5967136e-01   7.6396628e-07
  3.9889666e-01   2.2804034e-05
  4.7551844e-01   9.5559872e-06
 -1.7413345e-01   2.0551679e-06
  2.9185363e-05   5.0509680e-06
  6.8866682e-01   4.8355969e-06
  2.8320272e-05   2.2999996e-06
 -1.4406237e-01   4.5864334e-07
 -6.3499039e-01   6.4216259e-09
  1.0194494e-05   4.9966744e-08
 -6.6689331e-06   8.2234255e-06
 -7.3316434e-05   9.9348858e-07
 -4.4622506e-05   7.7532231e-06
  6.7696428e-06   6.3294728e-08
  2.6961843e-05   4.2949665e-07
  9.3422195e-06   5.8299811e-06
 -3.1914657e-05   2.7815236e-08
 -1.2428892e-03   5.0360504e-06
 -6.9400528e-05   1.5445091e-06
  2.0836260e-05   2.1057022e-06
 -2.2499257e-06   1.2359392e-06
 -4.8080230e-05   7.8514131e-06
  1.8458195e-05   3.5299996e-07
  8.3135863e-05   2.8795573e-06
 -3.7530430e-05   7.4783560e-07
  2.6901693e-05   2.2466882e-07
 -6.4776432e-05   1.4413075e-07
  4.0164895e-04   1.0212244e-07
  1.1913479e-05   2.3086935e-07
  4.1429557e-05   1.5839667e-06
 -3.2019758e-05   2.3602379e-06
 -7.4325530e-05   1.5756677e-06
  1.1807798e-05   8.5118535e-07
 -5.5790774e-04   2.5355197e-08
 -2.3088176e-05   4.1433855e-06
 -1.3781336e-05   4.3164292e-07
  2.0169158e-05   5.8342039e-07
  3.2864740e-05   3.6014842e-09
  5.4990523e-02   1.8882010e-06
 -8.8976003e-06   1.1350526e-05
 -4.7372460e-01   1.3579850e-06
 -1.5181105e-05   3.2052324e-07
  3.0282459e-05   1.1792493e-07
 -7.8040930e-06   2.1479048e-08
 -5.2004714e-02   1.7447071e-06
  2.1060527e-05   2.1322655e-06
 -3.8849423e-05   2.6704183e-06
  1.7670434e-06   5.4406752e-07
 -5.9344395e-05   3.1303557e-06
  7.1775255e-05   1.6390368e-05
  6.6931047e-05   9.9724766e-06
 -6.9638729e-05   1.1000996e-05
  3.4896293e-04   7.3780211e-07
 -6.3715386e-04   1.2534308e-06
 -3.6158428e-01   1.8864845e-06
  5.8708805e-01   1.1209750e-06
  3.7726089e-01   1.0652138e-05
 -1.3309253e+00   1.6202335e-06
  2.6387665e-01   5.3530812e-08
  1.3071241e+00   2.1340727e-06
  1.5270438e+00   2.6433764e-07
  8.7165737e-01   1.5196199e-05
  3.0268165e-01   4.3233222e-06
 -4.7810259e-01   2.2240765e-06
  2.9071712e-01   1.0070528e-05
  4.4134605e-01   6.0349646e-07
  6.1943573e-01   7.8571048e-07
  2.7285042e-01   1.2557247e-06
  2.5577417e-01   1.2869488e-05
  1.1356292e+00   3.2070358e-05
  3.0570707e-05   8.6075289e-07
  8.2910800e-01   4.2074730e-06
 -7.2900927e-01   3.5200592e-05
 -1.8611778e-02   1.4736246e-07
 -4.3431152e-02   5.8862843e-06
 -1.4368387e-01   2.5674528e-06
  3.2090667e-01   4.3906862e-06
 -2.8740683e-01   1.5126969e-05
 -4.3871900e-01   2.2815984e-06
 -1.5829811e-04   3.0197415e-07
 -1.3357265e-03   8.4869214e-08
 -3.5337719e-01   2.1785711e-06
 -1.3129919e-05   3.2538941e-07
  1.0564687e+00   1.4097885e-06
  1.5399663e-01   1.0551959e-06
  2.5106549e-01   1.1497685e-06
  5.9699941e-01   1.0992463e-05
  2.7921143e-01   9.5780001e-07
  4.0174914e-06   2.2818356e-06
  6.1470103e-01   3.7250906e-05
 -1.2892349e-04   1.2064543e-06
  1.1343575e-02   3.0036670e-06
 -7.0957714e-01   7.3745184e-07
 -9.1876507e-01   2.2974325e-05
 -7.1999187e-07   5.2920650e-06
  7.8018707e-01   6.2613367e-06
 -6.2032688e-01   1.1782795e-07
  6.3611433e-04   2.3582070e-06
 -5.1496142e-01   3.2808632e-07
 -2.5353269e-04   1.1158289e-05
  6.7318768e-05   3.1978095e-06
  1.3313162e-04   9.0626756e-08
  4.1514319e-01   2.7028680e-05
  1.1769799e+00   5.2638057e-08
  1.0302371e-01   6.7355913e-06
  4.7911701e-01   4.9993894e-05
  2.0814119e-05   1.5169012e-06
 -1.5152985e-03   2.5528647e-07
 -3.1050187e-02   5.5000469e-06
 -6.8677664e-01   3.9968677e-06
 -1.9191872e+00   1.0941961e-05
 -7.3827380e-01   3.5902428e-06
  3.9541334e-01   4.6888786e-09
 -7.0028257e-01   8.9057261e-07
 -7.2199160e-01   1.5650515e-06
 -2.8420955e-01   3.1988339e-08
 -6.8840921e-01   5.5486510e-07
  1.5026489e-05   6.3065585e-07
 -3.2816088e-04   4.6960531e-07
 -7.9079598e-01   4.1314320e-06
 -7.5724133e-06   5.6942827e-06
  4.0985039e-01   1.9937218e-06
  1.3102706e-01   2.4429227e-07
 -7.8208178e-01   1.0131704e-05
  4.3891010e-05   6.4135357e-08
  2.0263022e-05   4.6889113e-06
 -2.5896015e-05   1.8351861e-06
 -6.5438056e-05   3.3275006e-07
  7.3062409e-05   8.0519300e-07
  8.0613732e-02   1.5434058e-06
  4.1329503e-01   2.4209685e-06
 -2.8319064e-01   2.0435193e-05
 -9.3932096e-05   8.9011810e-06
  2.8075394e-01   2.9069834e-05
  2.0184866e-01   1.8123017e-06
 -1.5860390e-02   2.6413750e-06
 -3.1004429e-03   1.4225961e-06
 -1.2862545e+00   4.9750629e-06
  1.0864334e+00   7.3367892e-07
 -7.8620631e-01   7.5714428e-07
  4.4889298e-01   6.3525100e-08
  4.6231117e-02   2.6828873e-05
  4.2227829e-01   3.5313726e-05
  1.7027132e-01   3.3327897e-08
 -1.0970850e-01   1.2486838e-06
 -3.3707168e-02   2.1338206e-05
 -5.6421941e-05   5.7018515e-06
  1.3993384e-01   4.0674517e-09
 -2.7947518e-01   5.6185081e-06
  1.9670334e+00   1.2674413e-05
 -4.8624846e-01   8.1831076e-06
  8.9688873e-01   2.6082529e-05
  1.7697870e-04   7.5426641e-07
 -5.2875712e-06   3.9651936e-06
 -3.5764654e-03   2.8660995e-07
 -3.9859211e-01   8.0182053e-06
  1.7868242e-05   2.2132351e-06
  1.0779495e+00   3.1969546e-06
 -2.9964085e-06   6.1159221e-07
  3.4334174e-01   1.6195190e-05
 -1.3530747e-03   3.0375647e-06
 -6.7021007e-05   3.0469648e-06
  9.9641040e-02   1.5758542e-06
  1.2067989e+00   7.8163830e-06
 -1.2593472e-01   1.6106890e-07
 -6.4764738e-02   4.0912832e-06
  7.0646361e-02   2.1416881e-06
 -9.9734145e-01   7.1058088e-07
 -9.6259689e-01   3.0781530e-07
  2.1293406e-01   9.2882565e-06
  3.6955574e-01   3.0568963e-06
  2.0222352e-01   2.2200968e-06
  7.1190141e-02   7.5651536e-05
 -1.3405982e-05   6.1447531e-07
 -2.8955223e-05   5.6294020e-06
  6.2932959e-05   7.9085208e-07
  5.3127486e-02   2.8377935e-05
 -8.8265300e-02   1.1128649e-06
  3.7424663e-05   1.2185002e-06
 -9.4044451e-03   4.9501573e-06
 -1.9808462e-05   2.0013671e-07
  3.5841553e-05   7.0297683e-06
  1.7034391e-02   1.1957205e-05
 -3.6236253e-02   1.0922466e-05
 -2.3248905e-01   1.5035961e-07
  7.8196698e-01   2.4406017e-07
  8.3799502e-03   2.1821015e-06
 -5.4412205e-05   4.1976241e-06
 -1.7605466e-01   9.1528406e-08
  3.7526506e-01   1.9350155e-06
  4.7548054e-04   3.4797720e-06
 -4.1452110e-02   5.0237040e-06
  1.1059091e+00   1.2878436e-07
 -1.3762789e-02   7.5494863e-06
 -1.5834871e-03   9.6787044e-06
 -5.4213573e-04   4.8897945e-08
 -2.0572941e-01   8.2681987e-07
 -3.0136690e-01   6.0182538e-06
 -4.5424765e-01   8.5331958e-10
 -6.3083816e-04   3.1126035e-08
  8.0074891e-02   2.4127280e-06
  8.8152963e-01   2.3098837e-06
 -3.8501529e-03   3.1509690e-06
 -1.9226684e-01   1.2083734e-06
  1.0598753e-01   1.4244356e-06
 -2.3909090e-02   1.7171533e-06
 -2.2783449e-01   3.4109971e-06
 -1.8518249e-05   4.9444388e-06
  1.2950547e-04   8.3985690e-09
  7.5907880e-01   4.7217913e-05
  3.1180818e-05   1.4133219e-06
  4.6989317e-03   1.8795374e-05
 -8.8572808e-05   4.4142675e-07
 -9.2649001e-01   1.5919835e-07
  9.8669133e-04   8.5401825e-06
 -1.3110024e-05   7.8673156e-06
 -4.2879027e-01   2.3511815e-07
 -8.8903016e-01   7.7693056e-07
 -6.2774108e-03   1.2358394e-07
 -1.7321240e+00   6.9552482e-07
  1.6967511e+00   3.0634297e-09
 -5.3093696e-01   5.4827833e-08
  1.5446771e+00   7.7973249e-07
 -7.7051455e-01   3.8758884e-08
 -1.5699528e+00   5.3577448e-08
 -2.0791890e-04   3.7897553e-06
  8.9703453e-01   4.8807453e-07
  4.3477780e-01   3.2457930e-08
  3.2356262e-01   7.7187387e-06
  8.9743280e-01   2.0320788e-06
  8.4617591e-01   1.1188892e-05
 -6.3284576e-01   5.6773409e-08
  4.6198431e-05   1.9636145e-05
 -9.4069296e-01   2.8807794e-06
 -7.7267108e-03   1.7553309e-06
 -4.8882710e-05   1.1006670e-07
  1.4166856e-01   9.1265775e-07
 -6.3471192e-01   2.9570490e-06
  1.0320175e-01   1.8783074e-06
  1.9062961e+00   4.2072929e-07
 -2.1809056e-01   1.2319542e-07
  6.8567619e-02   2.1543469e-06
  1.1976198e+00   2.3340172e-06
 -7.3267627e-01   1.5673882e-05
 -1.7181858e-01   2.3940684e-06
  8.6869347e-01   2.2110698e-06
  2.5730819e-01   4.9561589e-07
 -1.0987791e+00   1.3546875e-06
  1.8122848e+00   1.3567870e-05
 -7.0925234e-03   9.7559732e-06
  1.9393627e-01   1.0267918e-08
 -1.6853568e-01   3.8675199e-07
 -9.1806298e-01   1.0402102e-06
  1.4282523e-01   9.7738475e-06
 -3.5872525e-01   2.2641218e-06
 -1.0166466e+00   1.0328829e-07
  1.0996511e+00   1.3545838e-05
  1.3361008e-02   1.5701614e-06
 -1.5380837e+00   1.5957377e-06
 -4.0713689e-01   1.8859420e-05
 -1.6018413e-02   2.0033103e-06
  1.7102590e-01   1.2199046e-06
 -4.2711874e-03   5.3390017e-06
  1.6890943e+00   3.8544782e-05
  3.8331690e-01   8.1020444e-06
 -1.5014049e-01   5.4957462e-07
 -5.4230386e-01   2.1262085e-05
 -2.0614393e-01   3.8556217e-07
  4.4402434e-05   6.6102416e-08
 -2.4139421e-05   4.9191740e-08
 -2.3195007e-05   6.8780662e-07
  1.6141459e-04   2.9623652e-06
  9.5835174e-05   9.3362059e-06
 -9.7927063e-05   4.6772723e-07
 -3.6252026e-05   9.2741702e-06
 -6.5944982e-01   1.2070822e-06
 -5.5926204e-02   8.9295372e-06
  3.7795533e-05   9.8380633e-07
  3.0832103e-04   6.7163080e-07
 -5.4207747e-05   1.0000097e-07
  8.0792925e-06   6.3789042e-07
  3.7238871e-05   1.5086553e-06
  4.1144438e-05   2.5862871e-06
 -1.2847520e-05   5.7708703e-06
  4.0929619e-05   1.5093472e-07
  7.7877441e-05   1.4209488e-06
 -5.2525473e-05   5.3757481e-06
 -1.2788498e-04   2.4074900e-06
  5.1085059e-05   7.9561985e-08
  9.9666104e-06   2.0793525e-06
  2.0952792e-04   1.4189377e-05
  2.5253335e-02   3.3543951e-05
  1.0010903e-04   1.1624865e-07
 -8.9376808e-05   1.3056335e-06
  7.2695686e-05   1.4322317e-06
 -6.5747969e-05   1.0260633e-05
  1.0200591e-03   4.4598087e-06
 -1.1891094e-04   4.1295684e-07
 -6.3472158e-05   3.5162881e-07
 -7.9385954e-06   4.1285926e-07
  1.4778128e-04   4.8362349e-06
  2.8093267e-05   6.3426256e-07
  6.4547872e-05   7.9024244e-07
  3.4458078e-03   2.5451034e-06
  1.6986864e-04   1.4758052e-06
  5.4449916e-05   3.0994431e-07
 -4.2514672e-05   4.9802002e-06
  4.1212457e-05   3.0983642e-08
  4.0679866e-01   3.6531758e-06
 -1.3461102e-04   3.8902666e-08
  4.8032776e-04   1.1318533e-05
 -5.9518939e-06   3.5353871e-06
  2.4541005e-04   1.3461800e-05
 -9.0018118e-05   1.3523535e-07
  1.9337107e-01   1.0941875e-07
 -1.3471976e-05   3.3678050e-06
  4.5890887e-05   1.7509257e-05
 -1.2687401e-05   5.1965139e-06
  1.7922444e-04   5.8023306e-07
 -7.1175054e-05   1.0709612e-05
  9.3084389e-05   3.1862218e-08
  1.2044659e-05   6.8727509e-06
  4.0828243e-05   3.4315628e-06
  4.5878682e-05   7.1009794e-08
  1.6784289e-06   2.8451905e-07
  6.8479931e-06   1.0359928e-06
 -3.6652742e-05   1.7832281e-08
 -5.8424372e-05   1.5927458e-07
  1.4687495e-05   1.5428272e-08
 -2.8711102e-06   3.7553869e-07
  2.8476554e-05   8.8014904e-06
  5.5290759e-05   3.4839832e-06
 -3.7624181e-05   4.4173103e-07
 -3.5918372e-05   4.6054308e-07
 -1.3868447e-06   7.5795256e-08
 -3.6478774e-05   5.1091138e-06
 -5.7723132e-06   6.8015561e-06
  5.7344107e-05   3.2218821e-08
 -2.8616860e-05   8.1156331e-06
  1.2106781e-04   1.0157589e-06
  1.0721596e-05   2.6187214e-08
  2.9427460e-05   5.1565603e-06
 -7.9676020e-06   6.3351642e-08
 -5.4380605e-05   1.5806272e-07
  2.0013324e-05   2.8551226e-06
  7.8858984e-06   3.7198660e-08
 -3.7761733e-05   4.4516382e-06
  1.0010807e-06   1.2199215e-05
  2.9521463e-05   5.2093856e-07
 -1.8206719e-04   1.6836054e-07
 -4.3846543e-05   2.7969918e-07
 -6.7924288e-05   5.1552989e-09
 -5.9828242e-05   1.5013155e-05
 -1.1732111e-04   1.8076112e-06
  4.2690071e-06   3.2299399e-06
  4.2192853e-05   2.3222658e-06
  7.2291085e-05   1.4084367e-07
  1.3430924e-05   7.5558620e-07
  9.7016209e-06   5.8160606e-07
 -4.0523573e-06   2.9060036e-08
  1.3824661e-04   5.1754103e-08
  3.4517856e-05   6.0734419e-06
  3.8985090e-06   2.3321593e-06
  1.5070657e-05   5.3738727e-06
  1.2802975e-05   2.0590015e-07
 -5.2334282e-05   1.4399488e-07
 -8.3748537e-06   6.0120819e-06
 -4.6508547e-05   1.8873020e-07
  3.8009930e-05   3.5659461e-06
  6.1836756e-05   1.4625773e-06
  1.6681402e-06   6.4115006e-06
  6.4844411e-05   5.0380925e-07
 -8.8583720e-06   8.8909678e-07
  7.7537545e-05   3.4014249e-07
  1.1889650e-05   1.8746724e-07
  3.2663316e-05   1.4577801e-06
  2.8616911e-05   3.6219303e-06
 -1.1385799e-06   6.3790117e-06
  4.1592230e-05   1.4489253e-06
 -8.2179522e-06   3.6031270e-06
  1.0965658e-04   1.3717831e-06
 -2.5063593e-05   1.7652050e-07
 -6.0495735e-05   1.3165071e-06
  4.6194746e-05   9.6898191e-08
 -2.1957336e-05   1.1657535e-05
 -2.4470703e-05   8.7626610e-08
 -1.1200833e-04   6.1195301e-06
  4.7592323e-05   8.1930483e-07
  1.7786317e-04   1.0492309e-06
  4.0584378e-05   1.2214286e-06
  4.9958118e-05   4.9723808e-06
 -9.5754731e-05   1.0392364e-09
 -1.2945818e-05   3.7003255e-07
  1.9687812e-05   2.1143169e-05
 -4.6653979e-05   7.2325105e-07
 -2.2075468e-05   1.0699041e-05
 -1.2455027e-05   6.2276167e-06
  3.0485003e-06   4.9669615e-09
 -6.0353665e-05   2.0574613e-05
 -5.3717798e-05   2.7269061e-06
 -4.8754686e-05   9.5994264e-06
  7.2846829e-06   6.3843868e-06
 -3.1951346e-05   5.9359621e-07
  1.1180760e-05   2.3069597e-06
  3.1216281e-05   1.0121687e-06
 -3.1057592e-05   2.0574873e-06
  2.9317143e-05   3.0385402e-06
 -3.4364577e-05   1.4325096e-06
 -2.0652320e-05   3.2090516e-06
 -4.9074068e-05   3.6003676e-06
  2.5826386e-05   6.8060363e-06
 -7.5502639e-06   2.0352735e-07
  1.3760679e-05   2.9559471e-06
 -4.2719566e-05   3.6242767e-08
 -4.8582220e-05   1.4113436e-06
 -8.1375394e-05   8.4142330e-06
 -2.0846649e-06   1.5852252e-06
  6.1428858e-05   2.6675477e-06
 -1.1035134e-05   1.1495433e-07
 -7.8309358e-06   1.4270572e-07
 -1.5145748e-04   6.1791484e-06
 -2.4404360e-05   1.2867683e-05
 -6.6056433e-05   1.3296878e-06
  6.9036018e-06   3.8642696e-07
  1.9811656e-05   9.5786515e-07
  6.3610332e-06   2.0301846e-07
  7.1014525e-05   3.1565467e-06
 -4.7972007e-06   4.8051800e-07
  1.8602314e-05   1.2950144e-07
 -6.9010559e-05   4.9889159e-06
  1.4781500e-05   2.2114962e-06
 -7.2920566e-06   4.0627572e-07
  5.4392436e-05   1.8554858e-06
  1.9219122e-05   3.7486336e-07
  3.7219608e-05   7.0437345e-06
  7.1888309e-05   7.4165146e-06
 -4.8120102e-05   1.3833188e-06
 -1.3099724e-04   3.4704375e-10
 -1.4815739e-06   1.8995551e-06
 -3.3727207e-05   4.3358124e-08
  1.0587954e-04   4.2806727e-07
 -3.7113983e-05   7.0809288e-06
  6.7244306e-05   7.5027942e-06
 -3.2656764e-05   1.1007464e-07
 -7.0859052e-05   4.7684703e-06
 -1.7601264e-05   1.4043098e-07
  2.8947834e-05   1.1647852e-05
  2.3809118e-05   9.1191168e-06
 -7.3123330e-05   5.3197340e-07
 -2.3936648e-06   1.8321866e-06
 -9.9143863e-06   2.3113682e-06
  3.2797991e-05   5.4645277e-08
 -1.3115117e-04   2.7020300e-07
 -5.6439221e-05   2.0115960e-08
 -1.5626480e-06   1.3537281e-06
 -9.9519605e-07   6.9314228e-06
 -1.7980547e-06   3.7180163e-07
  1.2813753e-04   5.0594576e-07
 -2.4178657e-06   6.0914599e-06
  9.7244534e-05   1.6525361e-07
  1.6577640e-05   1.7758224e-06
 -1.0372637e-05   3.5457483e-06
 -1.3478420e-05   4.3048094e-06
 -4.0886265e-05   5.4023576e-07
 -9.7752336e-06   4.4252101e-06
 -3.2478340e-05   9.6343035e-07
  5.5611886e-06   2.0473888e-06
 -4.3040167e-05   8.1418085e-07
 -3.5361922e-05   4.1241171e-07
 -9.0516318e-05   1.2507576e-06
  1.2382267e-06   2.6979008e-06
  1.1650237e-05   2.9061339e-06
  8.3128485e-05   4.3323280e-06
  1.0866043e-05   3.3581938e-07
 -3.2261712e-05   8.1805638e-07
  1.7047611e-05   7.0556348e-07
 -9.6498894e-05   6.2966183e-06
  6.9112277e-05   7.8431613e-06
  1.4439288e-04   2.9068556e-06
 -1.4246268e-04   1.5448155e-06
  2.3162011e-05   3.2856583e-06
 -2.3425666e-05   4.9191940e-06
 -3.9136990e-05   9.1539886e-07
 -9.6642834e-06   3.3024918e-07
  8.1430326e-06   3.0151579e-09
 -5.0953346e-05   7.5406768e-07
 -3.4223628e-01   2.4487235e-06
 -8.3571613e-02   6.5909585e-06
 -4.2643270e-01   9.4386411e-07
  5.9828436e-01   2.4729038e-06
 -1.6728494e+00   4.4888654e-07
  1.5279471e+00   2.6465323e-06
 -9.4208485e-01   8.9723795e-07
  1.5017389e+00   1.3347880e-06
 -3.0113885e-01   1.6177854e-06
  3.0219376e-06   2.6940838e-06
  3.3496675e-01   6.8611560e-05
 -3.4742377e-04   3.6169691e-08
  2.3166060e-02   6.0135560e-05
  4.3773556e-01   2.2303780e-06
 -2.2646934e-01   5.5468877e-06
 -2.1810214e-01   8.0245542e-08
 -9.5555835e-05   8.9938476e-07
 -7.9202378e-01   1.6061593e-05
 -2.6392955e-01   1.1323178e-05
 -2.1414156e-01   1.1165422e-05
  3.0156820e-05   1.0066760e-05
  1.4866650e-01   2.4890282e-06
  4.0569672e-01   6.2965711e-07
  8.9166939e-01   4.0013424e-06
  9.9338543e-01   1.7531444e-06
  1.2128438e-02   7.4371428e-06
  1.0239594e-01   1.6588460e-06
 -2.9794446e-01   5.6045747e-06
  4.6938825e-03   1.3892626e-05
  1.2955390e-01   1.0484770e-05
  4.7748957e-02   1.7289963e-06
  1.2918894e-01   3.3075182e-06
  9.3757946e-05   1.6179008e-07
  4.9921626e-04   1.9530341e-07
  1.5149795e-01   9.4536172e-06
  1.4647744e-03   2.7686651e-06
 -8.3896838e-02   1.6486243e-07
 -3.2031780e-01   4.9105606e-06
 -2.4873865e-01   6.6441335e-06
  6.8605739e-01   2.2529898e-06
  2.8633711e-01   8.3472355e-07
  1.8408076e-01   1.7656166e-07
  5.5912119e-01   1.2533911e-05
  3.0260330e-01   8.6437119e-08
 -7.1855366e-01   4.6001165e-07
  3.2119264e-05   3.2861777e-07
  2.0294769e-05   3.0649480e-06
 -3.2936180e-01   2.4077181e-06
 -3.2868344e-01   2.1564838e-06
  1.4039466e+00   7.9548909e-06
 -1.2007955e-01   3.1293581e-05
 -2.8000207e-07   6.1100974e-07
 -2.0626903e-05   1.9227441e-06
  1.4839490e-01   3.7905481e-06
 -3.1604333e-05   5.9830927e-07
 -1.0895423e-05   5.1143888e-07
 -1.3138582e-04   3.3532099e-10
  8.8544817e-07   1.1276957e-05
 -3.2735657e-05   4.9531859e-06
  1.3840495e-01   3.4778377e-06
 -9.4441901e-05   9.3775016e-06
  4.7539030e-05   1.9312336e-05
 -1.1658577e-07   1.0919413e-06
 -7.1151921e-06   1.2883625e-05
 -9.3498857e-06   4.1038354e-07
  2.7352942e-05   2.0374791e-06
 -1.3505439e-05   5.0794182e-07
  3.2005901e-05   5.9950953e-06
  5.9133490e-05   1.2358933e-06
  6.3549691e-05   1.0061732e-06
 -4.5297675e-05   6.7507754e-06
 -1.4326679e-04   5.4622883e-06
  1.4819953e-05   6.9194476e-07
 -1.4606892e-05   6.1229940e-07
 -5.2009949e-05   8.2234784e-08
 -5.8861671e-05   8.8567401e-07
 -6.4765882e-06   2.7659751e-06
 -9.7003604e-06   1.4470056e-06
 -7.8236153e-06   1.1526978e-06
 -9.3831404e-05   3.2556059e-07
  9.9058620e-05   5.0471652e-07
 -1.6659667e-05   1.0580222e-06
 -1.7271956e-04   1.0318117e-05
  1.0894793e-04   1.4464443e-07
  2.0154115e-05   1.2721340e-05
  5.1570860e-05   1.7502902e-07
  8.1954197e-05   1.0375143e-07
  5.1812291e-05   8.4300655e-06
 -2.7894850e-05   7.3353485e-06
 -1.1891609e-05   2.2924502e-07
  1.0528633e-05   3.9220069e-07
  1.2397435e-05   6.9220464e-06
  2.1554401e-05   1.6385462e-06
  2.4103614e-05   6.7789365e-06
  3.8391579e-05   7.2376042e-07
 -4.9241749e-05   8.9416665e-07
  5.6359942e-05   1.8404237e-06
  1.5749607e-05   1.6862962e-06
  1.0103201e-04   8.7788607e-07
 -1.1145506e-04   2.0401817e-06
  1.3348740e-04   1.1371049e-05
  3.9313923e-05   1.8897663e-06
  7.5091062e-05   8.9713762e-07
 -1.7606013e-05   2.3663963e-06
  7.6548342e-05   1.8545486e-06
 -8.4871965e-07   5.8780799e-08
  8.5824113e-06   1.8018238e-06
  1.1741521e-06   5.3619260e-06
  3.7434818e-06   3.6555593e-06
  7.4545962e-05   6.4319397e-06
 -1.4050853e-04   4.6616256e-06
  2.2319537e-05   1.5813104e-05
  1.2229619e-05   1.1474350e-05
  9.4089599e-05   2.2756826e-06
  1.5700462e-05   2.9411186e-07
 -1.8419472e-05   5.6189142e-06
  7.1481169e-05   2.3832250e-07
  6.9642942e-05   1.2428604e-06
  2.2648832e-04   7.2940475e-07
  5.7211077e-05   8.0059003e-08
  4.0679233e-06   1.0572748e-05
  1.2544865e-05   1.0042519e-06
 -4.5881170e-05   2.6929355e-08
 -5.1918680e-05   5.2278146e-09
 -1.5470454e-05   1.1460586e-06
  2.4933439e-05   2.0364871e-06
  4.3588778e-05   3.8704718e-07
  1.2097748e-04   1.2706047e-06
  1.3313839e-05   7.7310497e-06
 -5.5331169e-05   9.0545518e-06
  3.0136744e-05   7.3785924e-07
 -7.8845369e-06   3.9428340e-07
  6.4317923e-05   1.5081860e-05
  5.4460074e-06   1.5052922e-05
  3.0238352e-06   3.0737560e-08
  1.5026708e-04   2.1101287e-06
 -1.4144490e-05   7.4554265e-08
  1.7137196e-05   3.2390183e-06
  5.4271401e-05   6.6612338e-06
 -2.8469942e-05   4.6698669e-06
  2.6935120e-05   1.5589115e-06
 -3.9306738e-05   4.0519926e-06
 -2.3014614e-05   6.2326609e-07
 -7.8541625e-06   6.7652167e-07
  7.6160875e-05   1.0474523e-06
  3.1739051e-05   7.4834697e-06
 -9.9224198e-06   1.9384504e-06
 -7.8854275e-05   1.6728350e-06
 -4.4234203e-05   5.8573386e-07
 -5.0035804e-05   2.5988163e-07
 -1.1101782e-06   5.5022082e-07
  4.0207015e-05   1.3252273e-07
 -5.4658416e-05   2.5245963e-06
  4.3220931e-05   9.0413755e-07
  5.0540479e-05   6.7578691e-07
 -8.8651315e-05   2.6633711e-07
  5.3544856e-05   3.2618530e-06
 -4.1456344e-05   1.6799971e-05
  4.3688971e-05   4.6621881e-06
  6.5533932e-05   3.4442099e-08
  1.0388118e-04   5.1496249e-07
  6.1649560e-05   8.4204885e-07
 -1.0480770e-05   5.5295226e-07
  2.4441291e-05   4.6632131e-06
 -6.3458867e-02   3.1550821e-06
  1.9374482e-05   3.2699543e-06
  9.7278753e-05   5.6025483e-06
  4.2907968e-02   6.7711812e-06
 -4.4332763e-05   9.0541852e-07
  1.0804813e-05   9.9966601e-06
  2.4865891e-05   1.5276033e-05
  2.5082221e-05   9.9430258e-07
  6.3190382e-05   1.2261262e-06
 -3.1618823e-05   4.2959705e-06
  1.3821285e-05   3.1568047e-06
 -8.3272516e-06   2.3765112e-06
  7.5937758e-05   3.3554546e-08
 -6.4932976e-07   2.5050843e-08
 -4.3522279e-05   3.7800789e-06
 -1.1588349e-06   1.4432681e-05
 -8.1760227e-05   2.6455602e-06