56
Lattice="14.575320198 0.000000000 0.000000000 -7.237710799 12.417514367 -0.000000000 -0.090533090 0.201709114 20.191116117" Energy=-460.189581810 Properties=species:S:1:pos:R:3:force:R:3 Virial="-34.74406000 -10.68986000 -0.49139000 -10.68986000 8.54717000 1.70723000 -0.49139000 1.70723000 -2.02541000" pbc="T T T" Config_type=POSCAR-14_SCF weight=1.0
C      2.44721000      4.16620000      1.11067000      1.58443300      1.57561100      0.09825100
C      4.74405000      4.13391000      1.24200000      4.91651000      0.42715700     -2.03805300
C      7.24267000      0.10081000      1.10560000     -2.23347900     -2.67904300      0.64473000
C     -0.11881000      4.23448000      1.11658000     -1.20271800      0.51089400      0.40659800
C      2.48146000      0.06201000      1.10981000     -2.64996800      1.35061600     -0.09635900
C      1.12726000      2.11090000      1.07305000      0.46806200     -8.69625500      0.87833100
C     -1.18651000     10.52647000      1.10882000      2.00898400     -2.98662000      0.42880500
C      1.21731000     10.35383000      1.12056000     -0.36738400      0.77180200      0.20347900
C      3.55775000      6.21959000      1.10062000      2.48836300      3.15695700      1.06082500
C     -3.88140000     10.32734000      1.12487000      8.43787500      4.51200100     -0.03430900
C     -1.32161000      6.22537000      1.14980000      8.47309200      4.50118700     -0.60355300
C     -2.44004000      8.16136000      1.08720000      0.17731400      4.30085600      0.18956600
C      9.82215000      4.23275000      1.14518000     -9.94328700      2.39407100      0.37071400
C     12.14439000      4.15145000      1.26555000     -1.61735500     -0.49762000     -3.17079600
C     14.49129000      0.10430000      1.14426000     -0.19746400    -11.54911600     -0.56383100
C      7.19061000      4.20409000      1.13706000     -2.02035600     -0.53973400     -0.25786200
C      9.58834000      0.03363000      1.04409000      3.59622500     -1.22348200      2.28848500
C      8.53231000      1.97597000      1.12349000     -2.90630100      1.83060500     -0.19844700
C      6.01421000     10.39030000      1.13104000      6.90829000      0.53491100     -1.36423500
C     -5.99339000     10.43878000      1.10912000     -7.68735200     -2.81054200      0.16838500
C     10.88051000      6.23341000      1.05559000     -0.70635100      1.68381300      0.77296500
C      3.56140000     10.54441000      1.00657000     -1.34653400     -7.71953500      1.19279500
C      6.06563000      6.25528000      1.07967000     -0.70843300      0.41177700      0.79917500
C      4.84987000      8.20023000      1.09555000     -6.08010700      1.29358800      0.17837900
N      1.07015000      3.42530000      1.14896000      2.56550000      4.46787900     -0.58982100
N      2.42894000      5.53018000      1.12618000     -0.87827000     -2.13344100     -0.12102300
N      3.63449000      3.45981000      1.07041000     -2.04428300      0.86774200      0.70191900
N     -2.33757000      5.51666000      1.06349000     -8.76422200     -0.37942700      0.83471400
N     -1.27346000      3.58257000      1.15755000     -1.42000200     -3.21037900      0.95339000
N     -0.08466000      5.54130000      1.10327000     -0.36197500      1.81140800      0.30085300
N      2.39581000      1.46939000      1.09553000     -2.46397100     -0.94958600     -0.16799400
N     -0.10186000      1.28217000      1.14710000      2.21198100     12.54854700     -0.30099400
N     -2.45630000      9.68306000      1.09544000     -1.00788700      0.38611800      0.06578900
N     -1.20880000     11.82409000      1.16659000      1.16379300      0.88917400     -0.41442900
N      0.06037000      9.72621000      1.11436000     -2.27438700      1.14426400     -0.27861400
N     -6.08627000     11.77641000      1.10983000      3.14874100      0.87392100      0.15236200
N     -4.90858000      9.66774000      1.23500000     -3.11318500     -0.91843700     -0.16326500
N     -3.65225000     11.76221000      1.10147000     -2.17096600     -1.29105600     -0.21385100
N     -1.22179000      7.71324000      1.13493000     -0.10200500     -6.41356000      0.12927500
N     -3.64743000      7.64599000      1.08287000     -0.62951300     -5.11013300     -0.46214900
N      8.50176000      3.50264000      1.16207000     -1.21063900     -1.74983200     -0.16204100
N      9.77476000      5.48271000      1.15644000      0.66285800      8.31090100      0.14122100
N     10.77185000      3.59109000      1.05255000     15.65710300     -8.14868400      0.39777700
N      4.84487000      5.54746000      1.19071000     -1.95527100     -0.65497300     -0.09533500
N      6.02716000      3.46883000      1.12380000     -1.23438900      1.36408900      0.98417200
N      7.20023000      5.54293000      1.05809000     -0.08031900      1.42578900      0.05234800
N      9.69372000      1.34367000      1.14933000     -0.90523300      0.67085800     -0.48746300
N      7.23264000      1.38033000      1.04660000      3.16197100      2.72489200     -0.02480400
N      4.85059000      9.61243000      1.04813000     -1.42246300      4.01128000      0.16020600
N      6.12635000     11.74040000      1.09739000     -1.54690900     -0.81151200      0.61327900
N      7.32073000      9.63995000      1.02168000      0.87788100      2.67294500      0.78897800
N      1.16685000     11.80337000      1.18781000      1.36594200     -0.48830900     -1.19947100
N      2.43297000      9.84504000      1.09960000     -0.83608800     -1.78459500     -0.96336700
N      3.62891000     11.74669000      1.16841000     -1.76503600      7.83365600     -0.83835800
N      5.93806000      7.65117000      1.09927000      6.65311400     -6.06493300     -0.49502400
N      3.61111000      7.60486000      1.15455000     -0.67393000     -2.44850600     -0.65231500
56
Lattice="13.911124716 -0.000000000 0.000000000 -7.209334619 12.713741630 0.000000000 -0.121028843 -0.403343380 19.639001006" Energy=-461.117266450 Properties=species:S:1:pos:R:3:force:R:3 Virial="91.05833000 13.96687000 1.15009000 13.96687000 -30.28637000 0.71319000 1.15009000 0.71319000 -1.54909000" pbc="T T T" Config_type=POSCAR-6_SCF weight=1.0
C      2.22492000      4.30011000      1.05335000      2.61903900     -0.19101100     -0.50479400
C      4.50437000      4.17104000      1.07142000      3.03644900      6.78551400      0.44339000
C      6.91168000      0.03390000      1.07536000      0.33926100     -1.56843800      1.37396400
C     -0.21347000      4.35026000      1.07929000      0.10116000     -1.92467900     -0.24056900
C     -4.90659000     12.66903000      1.13430000    -10.49014000      8.01049600     -0.59441700
C      1.11065000      1.99551000      1.00565000      1.45623800      0.15544700      1.10400500
C     -1.33473000     10.59530000      1.08941000     -1.12991800      5.27025400      0.56449800
C      1.00780000     10.57042000      1.07369000     -6.16890200      1.75405800      0.62209200
C      3.19138000      6.54979000      1.08116000      1.19928100    -10.28483500      0.26708600
C     -3.82721000     10.69854000      0.96960000     -1.83391100      0.05064900      2.52989500
C     -1.34346000      6.41662000      1.13921000      1.54442300     -6.76151800     -1.67406900
C     -2.50066000      8.41101000      1.03289000     -4.85064000     -1.98650400      1.31631900
C      9.22099000      4.23075000      1.10062000      0.77006900      1.56154200     -0.46716100
C     11.45505000      4.24916000      1.07880000      2.62222400     -0.97792100      0.47083500
C     13.79910000      0.03022000      1.12017000      2.86427600      3.13553800     -0.76382300
C      6.67598000      4.34743000      1.08405000      2.32208500     -3.02390200      0.38835600
C      9.35844000      0.03318000      1.08890000     -6.92237000     -0.08406900      0.41744900
C      8.03020000      2.01852000      1.07675000      2.06080500      0.38896500      0.58243500
C      5.54163000     10.63716000      1.12243000      3.71175000      2.17467700     -0.54684100
C      7.74211000     10.54540000      1.12818000      5.53736200      2.06682600     -0.08879000
C     10.22188000      6.35148000      1.14261000      0.98645700     -1.15128300     -0.90028900
C      3.18097000     10.73553000      1.03839000     -1.19270700     -1.64911300     -0.68502200
C      5.65203000      6.39743000      0.99458000     -0.48417500     -5.60610900      1.42129700
C      4.52670000      8.38377000      1.04477000     -5.03791500     -0.00072600      0.31829200
N      1.00576000      3.44612000      1.00952000      3.39092700      5.09339700      0.07371500
N      2.21384000      5.64263000      1.10340000     -1.96437000     -0.03663600      0.21131400
N      3.45045000      3.62271000      0.99351000    -10.10919500     -3.90101200     -0.43051700
N     -2.50578000      5.60458000      1.04223000      1.41709300      2.69650700      0.91268300
N     -1.25192000      3.56772000      1.16852000     -2.95841600      1.47214000     -0.01560100
N     -0.17630000      5.66739000      1.00524000     -0.65776000      1.86755200      0.50339500
N      2.24695000      1.33695000      1.09882000      1.39722800      0.39878500     -0.09313200
N     -0.04329000      1.47058000      1.06681000     -4.80726500     -5.78335300     -0.05811800
N     -2.59827000      9.96693000      1.06512000      1.48727200     -1.84219300     -0.65751900
N     -1.38779000     12.03254000      1.16622000     -0.80787200     -1.06607800     -0.90043100
N     -0.27206000      9.93662000      1.14273000      4.59887000     -1.56542700     -0.55367000
N     -6.15405000     12.04919000      1.09022000      0.92227100     -2.82062300      0.41351700
N     -4.87922000      9.87419000      1.11553000     -2.44338400      2.64047500     -0.94587600
N     -3.90784000     12.08448000      1.12655000     11.94419900     -8.73035500     -0.92636600
N     -1.47516000      7.64793000      1.07224000      4.02177400      5.12742300     -0.22190100
N     -3.67404000      7.68708000      1.16491000     -0.66357500      1.84824900     -0.35458600
N      7.98768000      3.57227000      1.06833000      0.74300300     -2.06858000      0.13301700
N      9.18126000      5.57934000      1.08715000     -2.12884400     -0.01017100      0.59217500
N     10.38378000      3.54556000      1.08457000     -2.99026900     -1.24871500      0.08604800
N      4.50469000      5.64669000      1.09040000     -0.20976700      3.28254600     -0.84280500
N      5.63685000      3.61380000      1.16426000      1.89779300     -3.28921900      0.06712300
N      6.75109000      5.59040000      1.07356000      0.55109900      6.47541500     -0.93234900
N      9.12276000      1.25315000      1.13373000      3.26801500      6.26827200     -0.44313800
N      6.93645000      1.41030000      1.12272000     -4.52897000     -2.28900900     -0.56308600
N      4.40746000      9.93555000      0.99751000     -1.31478500     -0.79153800      0.45703300
N      5.57942000     11.97648000      1.04081000     -3.97631400     -1.50868300      0.25548700
N      6.67923000      9.88071000      1.18297000     -2.11342800     -0.25109300      0.42440300
N      0.93046000     11.99657000      1.14877000      0.05426600     -1.23120100     -0.88910700
N      2.06973000      9.86679000      0.98159000      2.68203700      2.07241300      0.16597700
N      3.18752000     12.07475000      1.03797000      5.70106700     -4.91803600     -0.03958700
N      5.57525000      7.69857000      1.01439000      2.95577100      1.89064200     -0.62566600
N      3.26036000      7.76122000      1.14267000      1.58132900      6.07425300     -0.15657300
56
Lattice="14.652294058 -0.000000000 0.000000000 -7.514265020 12.698921600 0.000000000 0.295742195 0.248485617 20.188174559" Energy=-456.328644430 Properties=species:S:1:pos:R:3:force:R:3 Virial="-48.66401000 28.61432000 1.62020000 28.61432000 -75.17258000 -0.20708000 1.62020000 -0.20708000 -2.94726000" pbc="T T T" Config_type=POSCAR-12_SCF weight=1.0
C      2.43624000      4.38096000      1.05569000      2.76940500     -3.03131000      0.49343800
C      4.80320000      4.23037000      1.14997000      0.48202300      1.47464800     -0.72110300
C      7.26014000      0.04570000      1.21190000      1.06886000     -2.29294700     -1.54271800
C     -0.19351000      4.19999000      1.04173000      1.48204800      5.06455900      0.68659700
C      2.36955000      0.06564000      1.10179000      0.92674400      1.49354800      0.35224800
C      1.14043000      2.12104000      1.12461000      0.73004100     -4.52460900     -0.87018400
C     -1.26997000     10.62480000      1.03090000     -2.02518400      3.20825900      1.40092000
C      1.06719000     10.50986000      1.14306000     -2.58545100      3.33200600     -0.82673500
C      3.53587000      6.43350000      1.05965000      0.45525800     -2.40585100      0.57494700
C     -3.94923000     10.60946000      1.18613000      1.27252100      4.70256300     -0.90152600
C     -1.30145000      6.38222000      1.04073000     -2.75878300      5.75147300      0.50815300
C     -2.75243000      8.30647000      1.11968000     12.12163300      3.91025000     -0.20999300
C      9.73701000      4.38524000      1.11664000      2.48084300     -1.71687800      0.08424700
C     12.11139000      4.32273000      1.00850000      0.58288200     -1.64047500      2.14593000
C     14.56865000      0.01992000      1.12029000      0.25619900      1.88657400      0.02262600
C      7.23810000      4.28473000      1.15216000     -5.90820100      2.12251200     -1.08874500
C      9.80917000      0.12337000      1.09090000     -1.59438900     -3.95607700      0.34395200
C      8.36229000      2.16175000      1.15534000      3.11018700     -8.83584400     -1.00238600
C      6.06752000     10.62343000      1.02223000     -4.58273400      3.94341100      2.27504500
C      8.37323000     10.58099000      0.92399000     -0.67372400     -0.17267000      3.60965100
C     10.82974000      6.33524000      1.10546000      5.49144900      6.24725200     -0.19357500
C      3.34102000     10.51901000      1.24135000      8.92642100      9.67667400     -1.64147600
C      6.07078000      6.38618000      1.08546000     -6.90352700      2.50270500      0.72503700
C      4.72963000      8.33811000      1.05448000      8.30918300      3.22434700      1.14019300
N      1.23143000      3.64994000      1.15437000     -4.55120500     -3.19812100     -0.69692900
N      2.31406000      5.64972000      1.13338000      3.31458600      4.29118100     -0.42697400
N      3.68707000      3.54429000      1.02058000     -2.49994400      1.85433400      0.12528200
N     -2.49376000      5.74352000      1.14029000     -3.90130700     -4.22535300     -1.02211200
N     -1.30015000      3.50756000      1.10951000     -1.91276300      2.44363500     -0.78865700
N     -0.17808000      5.86614000      1.03821000      4.20361000     -6.81537300     -0.51830200
N      2.33648000      1.43854000      1.01254000     -0.54711300      0.63078900      0.66934200
N     -0.07895000      1.34943000      1.08203000      1.72260900      4.53237800      0.71884300
N     -2.56535000      9.97272000      1.15956000     -3.07116100     -1.73845100     -0.34498000
N     -1.44000000     12.14891000      1.12988000      0.96928200     -4.65662600      0.02142400
N     -0.17010000      9.88736000      1.01201000      2.50692000      1.17918500      0.26222000
N     -6.34843000     12.17163000      1.14259000      0.31928200     -6.75990900     -1.30192100
N     -5.08659000      9.90370000      1.03822000     -1.98437900      1.57482300     -0.56400400
N     -3.95507000     12.07236000      1.22245000     -1.02082800     -2.24962500     -0.23360500
N     -1.36515000      7.79962000      1.07242000     -3.98261800     -0.95498000      0.29385200
N     -3.82074000      7.78585000      1.03383000     -5.77209900     -5.75206500      0.12940300
N      8.52906000      3.51240000      1.08365000     -2.39804100      5.53274100      0.55602200
N      9.71554000      5.82038000      1.14954000     -4.68494800     -6.86445200     -0.15079800
N     10.92099000      3.59798000      1.11580000      0.03764000      3.60895300     -0.76973600
N      4.77538000      5.66105000      1.16281000     -1.68826300      1.24277900     -0.32995200
N      6.02479000      3.60489000      1.12132000      2.46487600      0.14048500      0.67580100
N      7.06255000      5.70269000      1.04856000      9.18519400     -5.94983700      0.03651400
N      9.67363000      1.39610000      1.07803000     -1.53553600      3.97131600      0.35980600
N      7.23878000      1.34934000      1.09699000      1.71018000      5.65118400      0.70575200
N      4.77031000      9.90099000      1.15964000     -1.60638400     -1.74077800     -0.36654300
N      5.86855000     12.10654000      1.16498000      1.91459600     -4.15350900     -1.21553900
N      7.11654000      9.91623000      1.17618000      5.31934000      0.94669200     -2.08511100
N      0.95013000     12.02312000      1.12889000      2.09570200     -1.92053600      0.92979500
N      2.30550000      9.96443000      1.15020000     -9.41440100     -5.27413900      0.16060100
N      3.40874000     12.04084000      1.06283000     -0.45895300     -1.34068400      0.69036100
N      5.98909000      7.72399000      1.15160000     -1.62997500      1.05597500     -0.45353000
N      3.64118000      7.78986000      0.98569000     -6.53760700     -5.02613500     -0.43086800
56
Lattice="14.421210056 -0.000000000 0.000000000 -7.129851266 12.547955061 0.000000000 0.279203076 0.258259866 20.572302220" Energy=-460.281208290 Properties=species:S:1:pos:R:3:force:R:3 Virial="-19.86742000 3.28712000 -1.13321000 3.28712000 -55.69413000 0.93432000 -1.13321000 0.93432000 -4.02904000" pbc="T T T" Config_type=POSCAR-28_SCF weight=1.0
C      2.37470000      4.25563000      1.11435000      6.35008100      3.86912900      0.85579500
C      4.76501000      4.12993000      1.25605000     -0.10507000      0.71258400     -1.88435100
C      7.16542000      0.02562000      1.15831000     -0.02408400      1.12808100     -0.62629700
C     -0.11425000      4.27893000      1.14194000      2.11298200      2.26628000      0.77865200
C      2.35282000      0.08449000      1.23666000      3.20885200     -5.10400300     -2.26566900
C      1.14887000      1.99293000      1.09172000      4.80656900      0.87802000      0.19038500
C     -1.14027000     10.49825000      1.26678000      3.97377100      0.80313200     -2.04520900
C      1.31137000     10.43635000      1.12308000     -6.06712200      1.66498400      1.33422600
C      3.59255000      6.30953000      1.10864000     -0.79453200      2.44385100     -0.17549900
C     -3.72159000     10.48132000      1.06609000      4.86924200      5.51153900      1.10815600
C     -1.18623000      6.34867000      1.01861000      1.09175800      1.93740800      3.36108600
C     -2.43193000      8.33576000      1.24509000      0.59287200     -1.55520900     -2.26756200
C      9.73258000      4.26315000      1.14206000      0.08173000      0.45910200     -0.05172800
C     -2.32861000      4.23259000      1.25837000     -5.80333200      0.36960800     -1.67799500
C     -0.03097000      0.10753000      1.02068000     -0.24764700     -4.60237800      2.06313200
C      7.09132000      4.33103000      1.20028000      0.58868400     -5.06730500     -1.18120200
C      2.41301000     12.54097000      1.15846000      5.28747700      4.01761900      1.12624600
C      8.29674000      1.98803000      1.19651000      5.78421800      2.44256200     -0.50651300
C      6.04422000     10.45375000      1.24382000      2.75986600      4.97084200     -1.54770100
C      8.39738000     10.37244000      1.11467000      8.71536200      4.42115700      0.21342200
C     -3.53542000      6.33615000      1.15882000     -7.59136200      2.54707100     -0.29185900
C      3.50665000     10.47670000      1.09941000      2.47419100      3.74929500      1.52550800
C      6.07896000      6.24538000      1.31693000     -3.39243100      6.37271900     -3.23623000
C      4.85301000      8.34241000      1.17365000     -2.20518300     -2.67188000     -0.20952600
N      1.27693000      3.57094000      1.09776000     -7.47526800     -3.90510800      0.00225700
N      2.33636000      5.66312000      1.12067000      3.43070000     -1.29332200     -0.46522900
N      3.58846000      3.53120000      1.24146000     -0.10388800      1.46266600     -0.04572300
N     -2.44992000      5.69695000      1.18077000      6.81587500     -4.24161700     -0.16532300
N     -1.26010000      3.52903000      1.17073000      4.73591300      1.62720600     -0.07070400
N      0.08870000      5.73189000      1.27816000     -5.16895900     -3.33598100     -1.99159800
N      2.43081000      1.35088000      1.10585000     -3.26848700      4.36351000      0.45180800
N     -0.00614000      1.41779000      1.09828000     -0.59084100      0.87562600     -0.61943100
N     -2.35365000      9.74583000      1.13399000     -0.70075200      1.75570800      0.76906900
N     -1.12813000     11.95439000      1.04797000      0.45831800     -3.24755600      1.03653400
N      0.11738000      9.74272000      1.26519000     -2.09461900      2.78838200      0.11995900
N     -5.93554000     11.93182000      1.08808000     -2.09197900     -0.79505200      0.28180700
N     -4.70928000      9.76483000      1.17311000     -7.58091000     -1.04250600     -0.10880900
N     -3.56358000     11.87805000      1.10940000     -2.40116400     -0.92899600      0.40166500
N     -1.23467000      7.69401000      1.11844000     -0.16370400     -1.22551500     -0.22307600
N     -3.64359000      7.72154000      1.12863000      1.85257400     -1.90961300      0.69027900
N      8.40326000      3.46532000      1.15041000     -0.55674100      2.89987800      0.18044800
N      9.60275000      5.66304000      1.13847000      3.16224000     -1.97699700      0.20168200
N     10.92737000      3.53466000      1.10276000     -1.32411000      1.96824300      0.97879200
N      4.81688000      5.73255000      1.05840000      1.00270500     -5.21724300      2.07852200
N      5.96212000      3.48010000      1.14445000      0.31235700      3.50567600      1.37407200
N      7.20338000      5.63513000      1.10531000     -0.39380500     -0.40961400      1.52098600
N      9.52895000      1.41778000      1.20206000      0.49598400     -3.62792900      0.10508500
N      7.20183000      1.42652000      1.09343000     -4.40483700     -4.93360000      0.08532100
N      4.76757000      9.79210000      1.19751000      2.52424200     -0.82306500     -0.17279000
N      6.08374000     11.92956000      1.23107000      0.47830200     -2.01525600     -0.45044100
N      7.32516000      9.87022000      1.08244000     -8.87287000     -3.57357400      0.32806800
N      1.31130000     11.87052000      1.20123000     -4.13811100     -1.51766600     -0.46153800
N      2.38767000      9.81795000      1.09793000      2.85804200     -2.56011200     -0.90950800
N      3.71485000     11.83771000      1.27467000     -4.61656000     -0.16280100     -1.12496900
N      6.01727000      7.78056000      1.20969000      2.20865200     -3.75931700      1.25359200
N      3.66326000      7.67336000      1.09164000     -0.85519300     -0.30866000      0.35992600
56
Lattice="14.001389161 -0.000000000 -0.000000000 -7.080342501 12.564774736 -0.000000000 -0.419863136 0.074915120 20.342099790" Energy=-460.262125300 Properties=species:S:1:pos:R:3:force:R:3 Virial="86.96989000 -10.33355000 1.65082000 -10.33355000 1.23449000 -0.38124000 1.65082000 -0.38124000 -2.13382000" pbc="T T T" Config_type=POSCAR-37_SCF weight=1.0
C      2.35284000      4.27030000      1.05582000     -3.26514100      3.80766400      0.94184200
C      4.58640000      4.24196000      1.09558000     -9.91260900      1.64210500      0.37234200
C     -0.09889000     12.56683000      1.22975000     -7.76510400     -1.47632300     -2.51279100
C     -0.20456000      4.31482000      1.01030000      4.75220000     -1.59596000      1.39637300
C      2.36006000      0.05779000      1.05668000     -5.38278700      2.49962100      0.60071800
C      1.14284000      1.96206000      1.04329000     -9.31485100      4.13720500      0.97308900
C     -1.23872000     10.49495000      1.09905000      3.47350800      2.43780700     -0.28274400
C      1.03011000     10.50452000      1.10443000     -1.59712400     -5.70172400      0.14679200
C      3.39295000      6.33732000      1.11435000     -2.95015800     -0.68344700      0.24721900
C     -3.79411000     10.52967000      1.09947000      0.48621000     -0.58972200      0.13810200
C     -1.32103000      6.30497000      1.15439000      3.37742400      1.84695900     -0.07836400
C     -2.48437000      8.33251000      1.12036000      4.44046500      1.43241400     -0.09376800
C      9.25472000      4.35448000      1.17213000      5.21965800     -2.32119600     -0.80749100
C     -2.30594000      4.16605000      1.02223000    -12.62124200      1.53061500      1.17209900
C     13.86171000      0.00668000      1.12914000      3.10864700      2.17877100     -0.20976700
C      6.76833000      4.34006000      1.20814000      2.08545600     -0.55286000     -0.45676900
C      9.30737000      0.08634000      1.14635000      0.24808000     -1.91884200     -0.52428600
C      7.99784000      2.00954000      1.05844000      1.44690600      0.58167000      1.68151600
C      5.77189000     10.62905000      1.20596000     -1.34905400     -3.52354900     -1.61322600
C      7.94964000     10.60827000      1.13951000      2.91317800     -5.38555400     -0.10294000
C     -3.48643000      6.33659000      1.14221000     -5.94587400     -0.02843700     -1.15672500
C      3.31304000     10.52861000      1.10552000     -0.96598100      0.41072200      0.82293700
C      5.67848000      6.33537000      1.06121000      2.77991000     -3.72446300      1.78537600
C      4.58298000      8.24945000      1.00441000     -4.05636900      2.45990000      2.11928600
N      1.14309000      3.61238000      1.10273000     -3.88058500     -2.68741100     -0.90810700
N      2.30981000      5.63431000      1.13857000     -2.39107700      0.16935600     -0.56049400
N      3.37355000      3.58107000      1.12145000      5.48028900     -2.41399600     -0.43210200
N     -2.40644000      5.57911000      1.12031000     -0.35950800     -0.53364900     -0.08821100
N     -1.26384000      3.59280000      1.07249000      4.16462100     -5.73084400     -0.88930200
N     -0.19993000      5.55535000      1.14893000      1.38830400      5.05193100     -0.25785600
N      2.18879000      1.43080000      1.09717000      9.08443200     -5.19469400     -0.42294200
N     -0.12338000      1.29879000      1.15667000      1.18527900      3.21773700     -0.59185800
N     -2.33659000      9.77535000      1.08997000     -7.60866900     -0.54270500     -0.01402300
N     -1.41041000     11.95635000      1.03984000      4.38551200     -2.81894900      1.37369100
N     -0.07635000      9.68300000      1.10712000     -0.46161900      4.01757200      0.18113000
N     -5.90560000     11.90186000      1.10502000     -4.23260300      2.22156300     -0.12488500
N     -4.90809000      9.75661000      1.14476000      1.92609900      3.32622800     -0.09842600
N     -3.74803000     11.90372000      1.09006000      5.90974000     -4.18064400     -0.07914700
N     -1.38859000      7.63575000      1.16820000      4.54489200     -1.73151300      0.58857400
N     -3.55626000      7.72601000      1.02975000     -5.39997500     -3.85814400      0.03113200
N      8.11152000      3.59840000      1.19598000     -6.04278400     -1.45881500     -0.24408800
N      9.34648000      5.66678000      1.09066000     -0.50673700      1.49287100      0.41308000
N     10.35501000      3.47301000      1.12127000      2.82131300      3.52073900     -0.24733800
N      4.49049000      5.58306000      1.13070000      4.85308700      3.07584200     -1.08754300
N      5.59864000      3.62494000      1.13876000     10.30215600     -3.95154800      0.21474100
N      6.92777000      5.66352000      1.21647000     -3.39213500     -0.14603600     -0.41761900
N      9.18406000      1.41703000      1.11259000      0.78770200     -1.96497000     -0.16740900
N      6.86344000      1.31868000      1.15749000      0.96188400      2.42872900      0.22588100
N      4.59508000      9.81562000      1.11534000     -1.87184900     -0.22444600     -0.16277300
N      5.68905000     11.90448000      1.09211000     -1.29098600      0.10944600      0.51160200
N      6.85873000      9.86234000      1.14081000      0.41376700      1.41373900      0.75356500
N      0.92329000     11.77990000      1.07119000      4.36556300      5.72483600      0.72666200
N      2.18488000      9.84010000      1.15306000      1.24275700     -0.02399500     -0.57138400
N      3.30904000     11.88238000      1.18667000     -0.05580600      1.61557500     -0.21848800
N      5.67242000      7.59898000      1.12406000      2.73105000      1.78473800     -1.05846800
N      3.35839000      7.68428000      1.14647000      1.74053700      0.82808000     -0.93641700
56
Lattice="14.695065404 0.000000000 0.000000000 -7.537732987 12.323956647 0.000000000 -0.139250386 -0.539020395 19.552165246" Energy=-460.573120210 Properties=species:S:1:pos:R:3:force:R:3 Virial="-72.35940000 25.97465000 2.35832000 25.97465000 17.22215000 0.41475000 2.35832000 0.41475000 -1.92376000" pbc="T T T" Config_type=POSCAR-21_SCF weight=1.0
C      2.46435000      4.14034000      1.14016000      0.66771800      0.70918300     -0.50655800
C      4.80279000      4.08004000      1.05554000      1.91991700      0.43249200      1.02666800
C      7.24804000      0.07558000      1.02858000      1.42935100     -6.39781700      0.31697700
C     -0.11777000      4.13327000      1.01810000     -6.72116500      1.91737400      1.30289300