 -4.4114760e-04   4.5545716e-05
 -4.0121828e-05   4.5353518e-05
 -5.5851591e-01   1.3151484e-04
  3.0058864e-04   9.1337970e-05
 -3.8746297e-05   3.3533397e-05
  1.0270280e+00   3.4855082e-05
 -9.4345996e-05   1.3221080e-04
 -5.4581873e-05   9.9969489e-05
  2.4799539e-01   1.1079291e-05
  6.0529425e-04   2.2833618e-04
 -1.3111040e-04   3.3144817e-05
 -6.3247490e-04   3.6573401e-05
 -2.0581779e-06   1.3653880e-04
  2.8511410e-04   4.5449258e-05
  2.3839879e-01   9.8848424e-05
 -2.6649441e-05   6.0805509e-05
  9.0615861e-02   1.5699443e-04
  6.9481862e-04   8.4668944e-05
 -2.9519061e-03   7.3387106e-05
  1.1263578e-04   8.1842889e-05
 -2.9812212e-04   1.7930242e-05
 -8.7547215e-04   3.8662820e-05
 -2.7224346e-04   9.3973984e-05
  8.1961771e-04   3.6372756e-05
 -6.8721129e-04   3.1346925e-05
 -7.7749114e-04   2.6839429e-05
 -3.3717193e-02   1.0275375e-04
  9.0076156e-02   5.2328352e-05
  4.4728705e-01   1.2902186e-04
  2.1583254e-04   6.3880303e-05
  5.2753717e-02   4.6071076e-05
  1.0048829e-04   2.7057806e-05
  3.8506168e-05   8.4549938e-05
 -5.2729715e-04   2.0691077e-04
  2.7598030e-04   7.9263715e-05
  5.4783840e-04   2.4860277e-05
  5.9840002e-04   7.6699464e-05
 -4.1527778e-04   1.7281029e-05
  7.2283518e-05   4.6398876e-05
 -2.9779025e-05   8.4050902e-05
  1.5027297e-04   5.7090139e-05
  6.6205702e-04   5.9792386e-05
  1.3575099e-03   2.6854777e-05
  2.1107921e-04   8.1962447e-05
  1.4983364e+00   2.9963967e-05
  9.9751307e-04   1.0928646e-04
 -2.8775932e-04   1.5411133e-05
 -9.7858498e-04   3.8794235e-05
 -9.8901370e-04   4.0014547e-05
  4.0471207e-04   7.9024168e-05
  2.5436172e-04   1.2292541e-04
  6.8580051e-04   5.1553565e-05
 -9.6045760e-04   4.2044900e-05
  5.8859243e-04   7.6317025e-05
 -8.4796100e-04   6.9454734e-05
  5.2468723e-04   8.0554040e-05
 -1.1098087e-04   1.3229789e-04
  1.0876578e-03   1.6528164e-04
  1.5079085e-04   1.8401342e-05
 -8.6104206e-05   5.0819755e-05
  4.1099548e-04   7.1460959e-06
  4.2046618e-04   3.1825577e-05
  4.9423351e-04   4.7558820e-05
  8.6718697e-05   2.4331404e-05
 -7.5611533e-05   7.8442754e-05
  2.9602819e-04   9.6283029e-06
  1.1026666e-04   5.7821890e-05
  7.2233548e-04   1.0525818e-04
  3.3481800e-04   7.6357988e-05
  1.1730393e-04   6.6166082e-05
 -3.7437541e-05   8.4319305e-05
  3.0805418e-04   5.9609272e-05
 -1.6318251e-04   8.2325751e-05
 -1.3775223e-04   5.9489732e-05
  9.4623322e-04   2.0647141e-05
 -5.7049678e-04   1.5153463e-05
 -9.1637150e-05   6.1141240e-05
 -7.7861398e-05   6.4428285e-05
  1.9890030e-03   4.1997613e-05
 -4.1639208e-04   5.7440466e-05
 -9.7386670e-05   2.8108187e-05
  6.3911843e-01   2.4264960e-05
  2.0402129e-04   6.7152861e-05
  5.7443602e-05   2.5723228e-05
  3.9772339e-02   3.3637567e-05
 -2.5926137e-04   2.2095855e-05
  6.9621508e-04   4.6328012e-05
 -4.4109030e-03   9.3922717e-06
  3.5659425e-04   1.1461381e-04
 -1.2867013e-04   1.0415581e-04
  2.6677179e-05   5.0318609e-05
 -2.7666625e-04   8.8946443e-05
 -6.2854495e-05   7.8062061e-05
  3.5488312e-04   1.4753874e-04
  1.8762531e-04   9.0811060e-05
  4.9413642e-04   4.0926076e-05
  1.8593773e-02   2.8945926e-06
  8.8292494e-05   1.1940489e-05
 -1.7219376e-04   1.0059656e-04
 -1.0845267e-03   1.7165989e-05
  5.6141714e-04   1.7911789e-04
 -6.5524993e-04   1.2417089e-05
  6.6222601e-05   9.8882418e-05
  8.7568740e-05   4.8869930e-05
 -1.8032260e+00   2.0664158e-05
 -7.9803605e-04   5.1742547e-05
  1.3153345e-04   2.0811636e-05
  8.1497460e-04   2.0341877e-05
 -3.6339763e-01   2.3486366e-05
 -7.5160570e-02   1.2500155e-05
 -2.8421497e-01   7.2525240e-06
  5.9893394e-01   5.5082372e-05
  2.9292109e+00   8.9189125e-06
  1.6372871e+00   6.3468792e-07
 -1.2982883e+00   7.6946717e-06
  5.1684886e-01   4.9101841e-06
 -1.4847014e+00   4.1060721e-07
  5.9808856e-01   2.2033708e-05
 -6.0754176e-04   1.2824876e-04
  3.4929916e-01   2.0517736e-04
  7.1013308e-01   3.7542082e-04
  1.5185554e+00   2.7333605e-04
 -2.5319266e-01   1.4374935e-05
 -8.5483557e-01   1.4502731e-04
  9.8283526e-05   9.4868461e-05
  1.3586223e+00   5.7099493e-05
 -1.5237480e+00   2.9455914e-05
 -1.7133802e+00   1.7373157e-05
 -7.0614547e-01   4.1015956e-05
  1.6728414e+00   3.1388146e-05
 -4.2023256e-01   4.0796534e-05
 -4.6102930e-02   1.4234553e-05
  9.9067676e-01   5.4776094e-05
  9.7649950e-01   6.0383280e-07
  3.5504291e+00   1.7734967e-05
 -1.0590308e+00   9.0446201e-06
  1.0205470e+00   1.6930311e-05
 -2.2945553e-01   6.8341789e-05
 -3.4239290e+00   3.3656681e-06
 -7.0705754e-01   2.2010878e-04
 -1.0169674e+00   1.0077123e-04
 -1.0154440e-01   4.5222814e-06
  8.3983147e-01   2.2868376e-06
  1.1203891e+00   9.2377224e-05
  6.7214113e-01   2.2926903e-05
  4.2725253e-01   1.4573795e-05
  5.4011446e-01   1.2094382e-04
  5.5684334e-01   1.4857092e-05
 -6.6913861e-01   4.7697657e-05
  4.6423462e-01   9.5901567e-05
  4.8449662e-01   4.6092042e-05
 -8.7552035e-01   7.2284038e-06
  9.4645405e-01   2.4416664e-05
 -1.5587397e+00   1.0787645e-04
  9.2090048e-02   6.1414328e-05
  5.8511066e-01   8.7920501e-04
  1.9855676e+00   3.4810798e-04
 -2.1578012e+00   5.6705700e-05
 -3.5789053e-04   4.4080349e-05
 -1.0890083e+00   8.1019760e-05
  3.1984082e-04   2.2548449e-04
 -1.5350653e+00   3.0421921e-05
 -4.1042182e-01   1.0759120e-05
 -7.3651624e-01   2.3665792e-05
  2.2986305e+00   6.7668279e-06
  6.6239280e-01   1.6237429e-05
  2.6946843e+00   5.0893091e-06
 -6.3833272e-01   5.3819423e-07
 -1.1560423e+00   1.5080333e-05
 -6.6228229e-01   7.1414924e-08
  1.8698231e+00   4.0076014e-07
  7.5933990e+00   1.0844113e-04
 -9.6264470e-01   6.9985102e-04
  5.2308714e-01   8.1272767e-05
  4.3139040e-01   1.3025181e-04
 -1.9338579e+00   7.8651297e-05
 -1.5785692e+00   1.0362384e-04
 -3.0727756e-01   4.3821783e-04
  9.1254032e-01   6.7787187e-05
 -2.2656379e+00   9.4692427e-05
  1.4998606e+00   4.8248048e-06
  2.0893295e+00   4.1731906e-05
 -1.8523427e+00   1.3693335e-05
  1.0654625e-01   1.4299455e-05
  1.3863925e+00   3.3503838e-05
  4.0606151e+00   2.6584043e-05
 -1.3324215e+00   4.0201048e-06
 -2.5253788e-01   3.7452966e-05
 -2.7745070e+00   2.1793490e-05
  1.7944081e+00   1.7986367e-06
 -5.0794071e-01   2.7639408e-05
 -4.2306238e-01   6.8996465e-05
 -2.5636446e+00   9.4859324e-06
 -1.6123943e+00   6.4377506e-05
  2.2598100e+00   5.0994942e-05
 -1.0926059e+00   1.2040366e-05
 -1.2125071e+00   4.7015001e-05
  3.0908078e-02   1.4996898e-05
  5.3253949e-01   1.2657551e-05
 -8.7546343e-01   2.2521430e-05
 -9.1965216e-01   4.2769443e-05
 -1.5953737e-01   1.0873674e-05
  5.5102944e-01   5.5099779e-05
  3.3418092e-01   7.5352742e-05
 -2.8914049e-02   3.5749152e-05
 -1.6668503e-01   3.6023037e-05
  9.3100496e-02   3.0698546e-05
 -4.2260462e-01   1.0248528e-04
  3.7351274e-01   4.8385042e-04
 -2.5291736e+00   1.5137497e-04
  3.7478900e-03   1.4092879e-04
  2.0064789e-01   3.2330130e-04
  3.6280897e+00   2.4762101e-04
 -3.8528499e-01   2.8663996e-04
 -4.4252041e-01   2.2098039e-04
  5.5973936e-04   1.0272166e-04
 -1.4263231e-01   2.5999570e-05
 -1.2379773e+00   3.3592405e-05
 -8.7100261e-01   2.0874231e-05
  2.5222287e-02   2.2262906e-05
  3.6434937e+00   3.6471123e-05
  7.8741395e-01   1.3246649e-06
 -4.4776964e+00   5.8897008e-06
 -3.1149879e-01   8.6717428e-06
 -1.3689377e+00   7.4110621e-06
 -4.9515700e-05   1.1068989e-04
 -2.8214033e-04   5.6745990e-05
  7.5677841e-04   3.9356957e-05
  8.3573454e-05   8.3795487e-05
  1.9453392e-04   3.9834340e-05
  9.8855880e-06   6.7618559e-05
 -8.3967124e-04   4.6728768e-05
 -1.9278856e-04   1.4427261e-05
 -3.7051467e-04   3.2241478e-05
 -1.3497525e-01   9.3147273e-06
  1.0792807e+00   5.0092494e-05
  3.3539366e-03   1.1137184e-04
  1.7601131e+00   8.4999629e-05
 -3.1706050e-01   1.0125707e-04
  4.8370051e-01   4.1364921e-05
  1.5827494e+00   3.9597558e-05
  1.6216403e-01   2.5263964e-04
 -1.5110036e+00   6.1700834e-05
 -1.2370740e+00   1.4839629e-05
 -1.1718980e+00   6.2379753e-05
 -6.2320207e-04   6.3638450e-05
 -2.2652352e+00   2.2786817e-05
  8.0721517e-04   8.5886008e-05
  1.0626636e+00   1.8203697e-04
 -3.8383412e-01   7.1273221e-06
  7.1227580e-01   1.9536172e-04
  7.1885064e-04   1.0688606e-04
  1.7098447e+00   5.5762179e-05
 -1.6245265e+00   8.1724043e-05
 -2.2920924e-01   2.7861705e-04
  2.4493318e+00   2.9956500e-05
  6.4343506e-01   1.2136738e-04
 -1.5314968e-03   1.1215913e-04
  9.1568285e-01   1.5276953e-05
 -1.2985169e-04   1.1912847e-04
 -3.6010984e-03   5.6753466e-05
  6.9285363e-01   4.1074018e-04
 -3.4971792e-05   6.8419009e-05
  3.0350927e-04   6.3001280e-05
 -2.1585696e-03   2.3383975e-05
  1.0608503e-03   6.3627813e-05
  4.1599982e-05   1.7707260e-05
 -1.0555602e-03   1.3770742e-04
  1.4532341e-04   7.6205019e-05
  2.2666978e-04   1.4444490e-04
  3.8303691e-04   6.7386667e-05
 -1.8392950e-04   1.4572628e-04
  7.0391856e-05   7.6960889e-05
  4.4814422e-04   1.5341489e-04
  2.1103512e-04   1.1805806e-04
 -4.7372436e-05   1.3591380e-05
 -6.5713553e-05   5.1524410e-05
 -6.3108420e-04   8.9128327e-05
  8.4166950e-06   5.9080707e-05
  1.9570717e-03   1.5200796e-05
 -1.8691966e-07   5.2409017e-05
 -1.1453917e-03   3.5786034e-05
 -4.3004710e-04   1.2813567e-04
  9.0313581e-04   5.6878718e-05
 -1.7356985e-04   1.3230236e-04
  4.4554067e-04   5.0880153e-05
  1.9131058e-04   4.4063523e-05
  1.7682998e-05   2.6178850e-05
 -2.5557621e-05   5.2730051e-05
 -5.6378031e-04   1.4576982e-04
 -4.0781957e-05   4.6561108e-05
 -1.4523575e-03   9.0263791e-05
 -6.8451080e-04   5.4214738e-06
 -2.0436292e-04   8.7385779e-05
 -5.7330908e-04   2.1602499e-04
 -4.3724585e-04   1.1814842e-04
 -1.7137070e-03   1.2317440e-05
  5.3069781e-04   1.3328478e-04
  6.2527382e-05   3.5788664e-05
 -2.1455712e-03   9.2711511e-05
 -4.3027091e-04   5.3355197e-05
 -3.2097707e-04   5.4980057e-05
 -4.5688977e-04   2.2871813e-04
 -4.5655224e-01   6.2687883e-05
  4.3574916e-04   9.0575966e-05
  2.0014704e-04   5.3869586e-05
  1.4778228e-04   8.7513399e-05
  4.5891321e-04   9.3235249e-05
  6.4159751e-05   5.9278806e-05
 -8.4060285e-04   4.1127361e-05
 -9.9685532e-04   8.6866894e-05
 -6.2192744e-04   5.4375039e-05
  4.9609714e-04   7.8654062e-05
 -2.0533359e-04   4.8745333e-05
 -6.7884226e-05   1.8830997e-05
 -3.1545626e-03   1.6746380e-05
  7.4824886e-05   4.9967592e-05
 -6.9209124e-04   1.2179009e-04
 -2.9781277e-04   1.2176395e-05
 -1.3989958e-05   3.8984363e-05
 -1.8797212e-04   6.9646507e-05
 -8.5049534e-05   9.8686636e-05
  2.7399472e-04   2.6920197e-05
  3.9840004e-05   5.2329004e-05
  6.3783783e-01   4.6436518e-05
  5.0430375e-01   8.5053398e-05
  2.2164512e-01   1.0390887e-05
  5.1756305e-01   4.6308232e-05
  1.3710270e+00   3.9482020e-05
 -1.9120550e+00   5.2271271e-06
 -1.5155427e+00   2.1087371e-05
  2.3524179e+00   2.7099993e-06
 -1.0720098e-01   6.6340149e-06
  5.7325852e-01   2.3050202e-04
 -6.1953183e-02   5.3001328e-05
  1.8755019e-03   2.7821871e-04
 -3.1547996e-04   7.7226949e-05
 -6.4451301e-01   4.7012270e-04
 -4.4280031e-01   3.8479016e-06
  1.0190143e-04   8.8469104e-05
 -4.0144799e-03   6.1508363e-05
 -1.2111615e+00   6.2554893e-05
  9.8221868e-01   1.0393213e-05
 -4.8908958e-01   3.6862170e-05
  1.2032044e-01   1.1018087e-04
  1.7258092e+00   1.3019926e-04
  1.2212956e+00   2.6778205e-05
  9.6525311e-01   9.0936534e-05
 -6.5809244e-01   2.9791650e-05
 -1.0212695e-03   4.6265472e-05
  1.5553118e+00   5.7351044e-05
 -3.5147128e-01   3.2999585e-06
 -2.0484664e+00   5.7505094e-06
  8.4768463e-04   3.0165085e-05
  1.8729438e+00   3.0294845e-07
  2.4640381e+00   2.0616326e-05
 -8.2943243e-01   8.6592627e-05
  5.6374967e-01   1.3129409e-05
  4.4294149e-01   2.8420356e-04
  8.2916245e-03   1.8814563e-06
  2.2812660e+00   3.7956008e-05
  2.9366431e+00   1.3551686e-05
  1.9405124e+00   3.3524272e-04
 -1.9577398e+00   8.8925472e-06
  4.1998577e-01   1.5871283e-05
  1.1941421e-01   9.3286442e-05
 -2.6079643e-04   4.8978549e-05
 -3.7138993e-01   3.0888119e-04
 -4.4826654e-01   1.0164947e-04
 -4.3439227e-01   2.4408431e-04
  3.8643411e-05   1.6670433e-04
 -6.2236261e-01   7.7016331e-04
 -2.3116304e-01   1.1666983e-03
 -2.0439308e-03   2.3465440e-05
 -1.4297195e-01   7.6425233e-04
 -2.7932192e-03   1.9454185e-04
 -1.4035587e-03   2.9987566e-05
  3.3102275e-05   2.0042124e-04
  8.1243128e-01   2.6361063e-06
  2.2634716e+00   7.4962259e-07
  1.5628240e+00   1.1516400e-05
 -1.2020437e-01   8.1142443e-06
 -1.9794776e+00   3.1841875e-05
 -1.3609118e+00   4.0554091e-06
  3.6809685e+00   2.9267600e-05
  1.4381244e+00   1.0245353e-06
  9.5441532e-01   3.8692178e-07
  2.8386232e-01   8.9111165e-07
 -1.5200876e-03   4.6700079e-06
 -1.1873075e-03   3.8376842e-05
  2.4688365e-01   1.1985398e-04
 -6.2402460e-04   5.7208990e-06
 -7.2660410e-01   3.8703427e-05
 -9.1517862e-04   2.1020664e-05
  2.0299540e+00   9.1436168e-04
  3.5891131e-02   1.2858484e-04
  5.3424740e-01   3.5490921e-06
 -2.2604220e-01   1.9295154e-05
 -9.8684198e-01   1.9340036e-05
  1.9759949e+00   6.5320215e-05
 -1.7641228e-01   5.1206171e-06
  1.1273475e+00   2.8077377e-05
 -2.5118518e+00   2.0750829e-05
  1.4047235e-01   1.2108691e-04
 -2.0669627e+00   5.7518828e-06
 -9.6695560e-01   1.3861569e-05
 -7.7437216e-01   9.4596580e-06
  1.6797924e-01   4.1005493e-05
 -1.7085738e-01   5.3860458e-06
  2.5438516e+00   9.4816896e-05
  1.4900451e+00   1.2433330e-04
 -3.0514184e-01   8.4193007e-06
 -1.0016587e+00   1.7198661e-05
  7.1263319e-01   1.4676755e-04
  1.5843080e+00   1.3243311e-05
  2.2909176e+00   3.5898207e-05
 -3.1313926e-01   1.8965465e-04
  4.5140788e-01   1.9466415e-05
 -1.4962449e+00   3.2853965e-05
  3.7315702e+00   1.7009205e-04
 -2.7226965e+00   2.1198466e-05
 -2.3018751e+00   7.6808865e-05
  4.2745735e-02   6.4809292e-06
 -9.1227084e-05   6.8277521e-05
  1.7886495e-02   3.3621138e-04
 -3.2017648e-04   1.2381733e-04
  1.2397463e+00   5.0335824e-05
 -9.3196360e-03   3.2787310e-04
  2.7591026e-01   2.9011507e-04
  8.8966334e-01   2.8108951e-04
 -2.6749684e-03   1.2828229e-04
 -2.9414320e+00   1.8445037e-04
 -1.0063484e+00   5.6904519e-06
 -1.3477424e-01   8.7727449e-06
  5.3200161e-01   3.6014296e-06
  1.0630314e+00   8.3192626e-06
 -3.2799461e-01   5.9922454e-06
  2.1159913e-02   6.2966143e-07
 -2.2447965e+00   1.0465397e-05
 -1.5157703e+00   3.1310603e-06
  6.0133356e-01   1.1777315e-06
  2.0928991e+00   4.2941258e-05
 -1.0254233e+00   1.0745409e-04
 -7.5821453e-01   3.2340871e-05
  4.8045981e-01   6.1286264e-05
  5.2347556e-02   3.4490149e-05
 -4.7983310e-01   3.1641830e-05
 -1.8449328e+00   8.6553686e-05
  1.4056897e-01   8.9883051e-06
 -2.5227767e-01   3.1635060e-05
  3.0255011e-01   7.4904256e-06
  6.8731081e-01   1.2628915e-06
 -8.3107734e-01   1.7977584e-07
  8.0656254e-01   9.5095420e-06
  5.5984443e-01   2.3794062e-06
  1.8479276e+00   1.1753686e-05
 -1.2749317e-01   1.6866781e-05
  3.8405773e-01   4.9731261e-06
  1.7152228e+00   1.5423115e-05
  9.9028325e-01   1.6287798e-06
 -9.0645069e-01   6.4896426e-06
 -2.4927261e+00   2.6811142e-05
 -1.4383770e+00   3.0343315e-06
  2.2606883e+00   3.6231861e-05
  6.3605413e-02   1.7831921e-05
 -5.9378630e-01   1.2153670e-05
 -1.8577499e+00   2.7344975e-05
 -8.1214237e-01   7.7694212e-06
  1.5484609e-01   3.4105035e-06
  1.5684495e+00   5.9282252e-06
 -2.3707096e-01   2.4775278e-05
 -9.4367224e-01   2.6865825e-06
  4.0174718e+00   1.7788223e-05
 -6.5138675e-02   4.7813787e-06
 -7.7062595e-01   4.0788232e-06
 -1.5687559e+00   5.2215888e-05
  1.7637239e+00   2.5977286e-05
  3.7971458e-01   1.0287852e-06
 -3.1539387e-01   1.3382683e-04
 -8.7009601e-02   1.5912679e-05
 -2.8708007e-05   3.6987396e-05
  1.9996889e+00   1.6039112e-04
 -8.1860238e-01   9.1901911e-06
 -2.3683855e-01   8.7268643e-05
  5.5202807e-04   2.3024240e-05
  1.9493376e+00   6.6914305e-05
  3.1661227e-01   6.4787764e-06
 -7.8123957e-01   5.4331332e-07
 -1.5228544e-01   2.7495573e-06
  9.3600488e-01   2.9872522e-06
  2.6643544e-01   1.7617808e-06
 -2.3258102e-01   1.0223384e-06
  7.5708675e-01   2.0611449e-06
  4.2179817e-01   1.1553821e-07
 -5.8819540e-02   2.5518153e-07
  1.7498111e+00   1.1812776e-05
  1.1512243e+00   1.9489338e-05
  2.7511549e+00   1.4231745e-05
 -2.6476461e-01   9.9290464e-06
  2.9862590e+00   1.0520239e-05
  1.7028261e+00   7.3077576e-06
 -1.3630818e+00   1.2861841e-04
 -4.3896168e-01   4.7522215e-05
 -1.9271824e+00   1.3976718e-05
  8.5791308e-01   4.1239099e-07
  3.9593297e-01   1.5064501e-06
  1.2887377e+00   1.2018317e-05
 -9.4572663e-01   6.4956348e-06
 -1.2732005e+00   6.2843196e-06
  2.8601754e-01   3.4514831e-06
 -2.2625723e-01   4.8121219e-06
  2.2563723e-01   9.9936472e-07
 -6.5912670e-01   1.0140051e-05
  7.7546710e-01   1.5724479e-06
 -2.7502641e-01   6.7714814e-06
 -1.9033225e+00   1.9201027e-05
  4.7183695e-01   4.8731039e-07
  1.2334204e+00   5.8774558e-06
 -3.8250912e-02   1.4032297e-06
 -1.0769298e+00   2.5149886e-06
 -6.6870308e-01   9.4893157e-06
 -1.6600059e+00   4.5961646e-05
  5.2905989e-01   1.8884314e-06
 -4.8813379e-01   1.5358239e-05
 -1.2612225e+00   1.6228449e-05
 -7.5362521e-01   1.3051981e-06
 -1.1480110e+00   2.0711648e-05
 -2.1274139e-01   7.4216791e-06
 -1.4930812e-01   2.1934955e-05
 -2.0013440e+00   6.4480041e-06
 -7.0757389e-01   5.0221288e-06
  1.0827199e+00   1.9439307e-05
  3.5009307e-01   9.5864641e-05
  2.4647814e-01   4.3005977e-05
  2.1626673e+00   1.3395068e-05
  8.5130715e-01   8.7460467e-05
 -4.9488354e-02   5.2874180e-05
 -2.2899275e+00   7.4255098e-05
  5.5706054e-01   1.0957068e-04
  6.3988614e-01   6.7883429e-06
  2.4107227e+00   1.0388358e-05
 -3.5131890e-01   5.0129215e-06
 -2.4253993e+00   7.1522290e-06
  1.9013174e+00   8.3070217e-06
  1.4927709e+00   1.4265100e-05
 -4.6381044e-01   1.3835088e-05
 -1.0121684e+00   3.6200045e-06
 -6.6091144e-01   1.8122055e-06
 -1.9173855e+00   5.7671637e-06
  1.9271746e+00   2.2417905e-04
 -2.0755064e-01   5.8609893e-04
  2.6239777e-02   1.7994262e-04
  1.9022845e+00   2.0409519e-04
  1.1538669e+00   2.5270871e-04
  2.6219946e-03   5.9577884e-05
 -1.0837868e+00   7.3835347e-04
 -1.0705215e-01   2.3323311e-05
  1.2998939e-01   2.5270359e-05
  2.5311460e+00   2.1197062e-05
 -8.0657518e-01   1.4759820e-06
  7.3261076e-01   3.3720713e-05
  8.6577392e-01   2.4566816e-05
 -2.4848720e-01   7.1888833e-05
 -4.1178101e-01   3.3385935e-05
  7.1646351e-01   7.3372194e-06
 -1.9725643e-01   6.9769019e-05
 -3.3150843e-01   3.7502145e-05
  1.2888863e+00   4.4576341e-06
  1.9488477e+00   2.2669979e-05
  9.4062948e-01   2.3396302e-05
 -2.4652329e-01   6.2546042e-06
 -2.5810134e-01   1.6118755e-05
  9.3424600e-01   3.7390939e-05
  1.6454271e+00   1.1123451e-05
  1.7733542e-02   2.7227732e-06
  4.6362050e-02   6.5754437e-05
 -2.1587783e-01   1.5141150e-05
 -8.7227456e-02   5.8194805e-06
 -2.7267131e-01   4.5041033e-05
 -1.1724257e-02   1.4584744e-05
 -5.3400330e-02   1.3408611e-04
 -1.3004955e+00   3.6947127e-04
  1.6105001e+00   8.8379042e-05
 -1.5315936e+00   1.0401098e-04
  4.1762102e-01   2.7702033e-04
  8.8201725e-01   1.1909356e-04
  4.3058969e-04   3.9835937e-05
 -5.2310264e-04   6.5163280e-05
 -1.3948860e+00   1.3495913e-04
  3.9613596e-01   3.1877786e-04
 -7.7721139e-05   8.7116350e-05
  6.1814867e-02   3.3763031e-04
  2.0014058e-01   1.5510716e-03
  1.3747260e-01   2.2136634e-04
 -2.9396346e-01   4.8326143e-05
 -1.1866572e-01   1.4105817e-05
 -2.5818954e+00   2.9038808e-06
 -1.2526234e+00   1.0209607e-05
 -2.9362881e+00   1.8375951e-05
  2.1266592e-01   5.1852539e-06
  1.4012991e+00   1.0928798e-05
  3.8845408e+00   7.7228810e-07
 -8.0189413e-01   1.9812323e-06
  7.8616911e-01   1.5816359e-04
  6.9019872e-01   1.5283504e-03
 -2.0997694e-01   2.3741936e-04
 -1.1714889e+00   1.4908281e-04
 -1.3938011e-04   9.4871997e-05
  1.0265611e-01   2.7053355e-05
  5.9140810e-05   1.5776638e-04
  1.4197643e-04   1.3550096e-04
  1.0426173e-01   2.6451278e-04
 -8.7870628e-01   1.3296280e-05
 -9.8644626e-01   8.7862627e-06
 -1.2862141e+00   1.9945475e-05
 -5.1260787e-01   7.6785882e-06
  6.7865676e-01   5.6087221e-05
 -1.0325202e-02   8.2548489e-05
 -3.2434341e-01   4.6909772e-05
 -7.7122128e-01   4.1761952e-05
  3.8756081e-01   2.5627205e-05
  1.0203465e-01   3.7152524e-05
 -1.0403550e+00   4.5090492e-06
  1.7244068e+00   1.0179054e-04
  5.5204904e-01   1.5878963e-05
  2.9490015e-01   6.5626213e-05
 -8.7647218e-01   2.0179015e-05
 -2.2246088e-01   1.5042743e-05
 -2.6156023e-01   9.9774406e-05
  1.0169986e+00   9.9283301e-05
 -2.3104703e+00   3.9004928e-05
  2.6422482e+00   9.2235547e-05
 -2.6813286e-05   7.8304700e-05
 -4.5299014e-01   7.5380663e-06
  1.6752175e-04   6.1967905e-05
 -2.1863644e-04   2.4109873e-05
 -1.2893145e+00   9.0437301e-05
  2.7573240e+00   8.2672654e-05
  6.5515083e-01   1.1989161e-04
  4.9331713e-02   2.9408908e-04
 -1.1574038e-03   1.1946581e-04
  9.0842380e-04   1.4504015e-04
  3.1636631e-01   2.8595940e-04
 -1.0789174e-03   1.6502288e-04
  5.9062068e-04   1.0877712e-04
  1.2547185e-01   5.0263753e-04
 -1.3515518e+00   5.9179401e-06
  1.4681848e-02   2.1928662e-04
 -9.7269541e-01   1.8372461e-05
 -6.7747611e-01   1.7673630e-05
 -5.1648784e-01   4.8017591e-05
 -1.0060066e+00   8.1696373e-05
 -5.7815239e-02   6.0988127e-06
 -3.5733359e+00   1.8153380e-05
  5.7997644e-01   2.3021916e-05
 -1.0815785e+00   2.7710210e-05
  2.3057544e-01   4.9940049e-06
 -1.2633326e+00   7.2659022e-05
  4.4366145e-01   6.3862943e-04
 -4.1130901e-04   6.3661675e-05
  3.5127387e-03   8.4434781e-05
  4.1960124e-03   6.3351094e-05
  1.3470532e-01   5.8782774e-05
 -2.6621323e-04   5.5104621e-05
 -3.5370044e-02   1.5924004e-04
 -3.1223713e-05   1.5580443e-04
  1.6098079e-01   4.5163470e-05
 -5.2946866e-02   3.0266978e-05
 -9.1542995e-01   4.5586548e-05
  1.6685414e+00   6.2831219e-05
 -1.7817578e+00   9.0686386e-05
 -3.2490906e-01   8.9526093e-06
  4.3367248e-02   7.7934303e-05
  2.4028612e-02   6.6997382e-05
 -7.8413144e-02   4.5597786e-05
 -6.0847681e-02   1.1753205e-05
 -2.2486951e+00   9.8421742e-06
 -2.7941674e-01   2.4893138e-04
  1.2394798e+00   5.5848823e-06
  2.5227195e-01   8.3562045e-05
  2.7095349e+00   1.5170914e-04
  3.0143170e+00   7.3429008e-05
  1.5263783e+00   6.1531748e-05
 -2.0766713e-02   3.3469964e-04
 -2.5708404e+00   2.4702127e-05
  5.0676137e-01   2.3197979e-05
 -2.1181001e-01   1.1034218e-04
 -1.6315838e+00   2.0520545e-05
  1.6843287e+00   7.6846845e-05
  6.7608941e-01   1.0743230e-04
  5.9940404e-01   1.8707558e-04
  7.3734932e-02   1.2560177e-04
 -1.0765450e-01   7.9408215e-05
  1.2223684e-01   1.6093797e-04
 -7.3884666e-01   1.9991094e-04
  5.6614578e-01   7.2156967e-05
 -1.5821260e-04   8.3870531e-05
 -3.4375206e-04   6.7807203e-05
  1.2692967e-02   1.0109731e-04
  7.3230547e-01   6.7228591e-04
  3.9889082e-01   3.3795115e-04
  8.8084906e-01   3.7328241e-04
 -5.8408254e-01   5.7058493e-05
  2.1094081e+00   1.0853390e-05
 -6.3769329e-01   4.7509067e-05
  1.4381394e-03   7.2093993e-05
  7.2565603e-01   6.5779459e-05
 -1.6099224e+00   1.8765370e-05
 -3.2204360e-01   4.2370852e-05
 -2.2220890e-01   3.3841570e-05
  1.5953918e+00   3.3488636e-06
 -4.2323420e-05   8.4330975e-05
  1.4953612e-06   9.9693185e-05
  8.6297700e-04   1.3416217e-04
 -2.6912650e-04   8.1933002e-05
 -1.0961602e-04   3.9828963e-05
  3.2889526e-05   4.0641738e-05
 -8.6494663e-05   5.4897653e-05
  3.9285928e-04   6.7241817e-05
  6.9000217e-04   7.1442366e-05
 -2.2075684e-01   6.3220570e-05
 -6.0817309e-02   3.7922549e-05
 -1.8686299e-01   4.8946855e-05
  4.4174677e-01   5.6552381e-06
 -7.0718094e-04   1.3314180e-04
 -2.4409671e-01   3.4795052e-05
 -1.0462034e+00   5.4421904e-05
  1.1847170e-01   1.3450102e-04
 -1.0473927e-02   5.5442357e-05
 -2.9185960e+00   6.0014718e-06
  1.9274296e+00   5.5089862e-05
 -9.0264739e-04   6.7125242e-05
 -1.0950326e+00   3.6205256e-05
  4.1454747e-05   2.0076408e-05
 -3.5019640e-02   2.7071260e-04
 -7.6185560e-01   1.4232041e-05
 -2.6737884e-04   5.9764719e-05
  2.1499404e-04   1.4261146e-04
 -3.5229344e-02   4.1816555e-05
 -5.7655040e-02   8.7429602e-05
 -1.4376170e-03   1.1065747e-04
 -4.7299019e-01   3.6881916e-06
 -1.8868880e-02   1.1750410e-06
 -3.2711348e-01   1.9599293e-05
 -1.1174113e-01   4.0437757e-05
  1.8760620e-05   5.0567141e-05
  3.1030852e-01   1.3923913e-04
  7.7122502e-02   1.0905529e-04
  6.9516187e-04   3.3134391e-05
 -3.0477933e-04   7.0479029e-05
  1.3935089e-04   1.7079402e-04
  6.2849245e-04   4.4771579e-05
  3.1978081e-05   1.9249792e-04
 -7.5575232e-04   9.2270966e-05
 -2.5647043e-04   1.9189542e-04
  1.2486117e-05   4.7445370e-05
 -1.8019034e+00   3.6685346e-06
 -9.9863756e-01   1.0026353e-05
 -5.8874911e-01   2.9451251e-06
  1.7535579e+00   1.0612825e-05
 -1.1073983e+00   3.9765247e-05
  1.8678995e+00   2.7441756e-06
  1.2251496e+00   6.8147106e-06
  1.5586346e+00   1.6268799e-05
 -7.8641362e-02   1.9162260e-06
 -2.4103942e+00   1.0438302e-04
 -5.0692155e-04   1.4413004e-04
 -1.1250589e+00   5.0771188e-05
 -1.2121042e+00   5.5412129e-05
  3.0405283e-02   2.2143629e-04
  8.3919835e-01   8.6968292e-05
 -9.8096754e-04   4.1981988e-05
  9.9169040e-01   1.6361137e-04
 -3.0738410e-01   1.7021644e-04
 -6.8381405e-01   1.2623370e-05
 -6.8298078e-01   3.3129800e-05
  1.0314704e+00   6.2479354e-05
 -1.6832873e+00   3.5888293e-05
  1.1699138e+00   1.3657960e-05
  7.9668385e-01   4.1557978e-05
 -4.1403222e-01   3.9316859e-05
 -4.6138847e-01   1.7380959e-05
 -3.3058152e-01   2.4309544e-05
 -3.4266472e+00   6.9036546e-06
 -2.2851155e+00   2.5309548e-05
 -7.4354064e-01   4.2228767e-05
  5.7803035e-01   1.1923274e-05
 -1.3914436e-01   6.5674059e-05
  7.1993083e-01   3.2681721e-06
  3.7751117e-01   3.5042194e-05
  9.4976699e-01   2.3669058e-06
 -1.3719220e+00   8.8606459e-05
 -6.2868349e-02   1.2718991e-05
  1.2426418e+00   7.5355483e-06
  1.6694533e+00   6.0379130e-05
 -8.8685751e-01   1.4078375e-05
  1.4933815e+00   3.1067932e-05
 -4.2566526e-01   9.1716516e-05
 -1.1459172e+00   1.4563569e-05
 -6.0485657e-02   1.3694334e-04
 -9.9274564e-01   1.0727905e-04
  6.9596335e-02   1.3596595e-04
  3.1510470e-04   2.6170139e-05
 -5.7991469e-01   3.5128131e-04
  9.9489349e-04   4.1296964e-05
  7.0231341e-05   2.3312823e-05
  4.1469749e-02   1.1371205e-04
  4.4050193e-03   2.3918214e-05
 -5.3144037e-04   2.1945991e-05
  5.3378594e-01   1.8551978e-04
 -5.6824791e-01   2.1635422e-05
  3.6336264e-01   2.0838521e-05
 -6.6546768e-01   1.2584006e-07
 -2.2554677e+00   7.1766058e-06
  9.7883815e-01   7.0918686e-06
  1.7773854e+00   3.3907900e-06
  1.5439477e+00   5.1395145e-06
  6.6573709e-01   1.8696015e-06
 -1.1405885e+00   4.9833695e-08
 -1.6557711e+00   3.2105843e-05
  2.3763345e-04   4.5620574e-05
  1.8254994e+00   2.8399093e-04
 -3.0123509e-04   2.9767880e-05
 -3.6843746e+00   1.1642168e-04
  3.8565977e+00   4.8265905e-05
 -5.5012995e-01   3.2481222e-04
 -1.3101448e+00   6.0650113e-04
 -9.7925740e-01   1.1622518e-04
 -2.2976224e+00   2.4439716e-05
  9.5320266e-01   3.4188866e-05
  8.8856414e-02   3.0624935e-05
 -3.2365669e-02   5.6210401e-06
 -2.2032928e+00   7.5782358e-05
  3.0300274e-01   7.5875555e-06
  2.4743717e+00   5.3191114e-05
  9.9258685e-01   2.5583246e-05
 -4.5827076e-01   4.6788709e-06
  1.6432309e-01   9.4460011e-06
  4.5191889e+00   2.8907065e-05
 -6.0710377e-01   3.7609934e-05
  4.5087180e-01   1.2026556e-05
 -1.6986616e+00   5.4457934e-05
  5.7819420e-01   9.1500609e-05
  2.8438133e-01   1.7228742e-05
 -9.5528446e-04   1.2601351e-05
 -3.8536515e+00   4.6790839e-05
  1.6324208e+00   1.0038898e-05
 -2.8787920e+00   3.7582951e-05
 -1.0141869e+00   4.7414383e-06
 -3.7045571e-01   6.1038772e-06
 -1.8805460e+00   6.1425075e-05
  9.0874970e-01   9.8557568e-05
 -7.7373308e-01   6.9599744e-05
  1.1448766e+00   1.4194653e-04
 -1.7435527e+00   7.3844807e-05
 -5.4365528e-01   6.7111752e-05
 -1.5474041e-04   2.6212245e-05
  1.7343136e-03   5.2809250e-05
  9.5867038e-01   1.8303070e-04
 -6.3374631e-02   9.2246832e-05
 -5.5746126e-01   1.7247310e-04
 -1.8083945e-01   1.9902877e-04
 -3.6320984e-01   1.5015005e-04
 -4.1037259e+00   1.5868084e-04
 -8.4206766e-01   5.8577472e-05
 -1.8028923e+00   4.2921798e-05
  1.4159433e+00   3.5202154e-06
 -2.5650990e-01   2.6166654e-05
  5.1979649e-01   1.9714887e-05
 -1.9604992e+00   4.0723435e-06
  2.4793954e+00   7.9051082e-05
 -1.4192601e+00   7.6805763e-06
  3.4911844e-01   1.1633259e-05
 -5.0736913e-03   2.1729400e-04
 -3.5963003e-03   1.0763989e-04
 -1.2272336e-04   1.3524383e-04
 -2.6666597e-04   2.2448019e-05
  4.0657438e-02   2.5346933e-04
 -3.1637846e-04   1.5557443e-05
 -4.6754238e-05   3.2413460e-05
 -5.8628324e-05   6.9196758e-05
 -4.8417514e-04   1.3900689e-04
  2.4254038e+00   9.5850228e-05
 -7.5558078e-01   1.7941038e-05
  2.0836975e-01   1.4405306e-04
 -3.9800339e+00   2.4103929e-05
 -1.9963682e+00   8.2986800e-05
  6.9441271e-01   1.8071795e-04
 -5.8994108e-01   9.6772557e-05
 -9.6724526e-04   5.7949725e-04
 -8.7073631e+00   4.2409003e-05
  8.4256135e-02   1.3902666e-05
  2.3064661e+00   1.5719203e-05
 -1.1785974e-03   8.3378858e-05
  3.1736932e+00   1.6399301e-06
  1.0603589e-03   6.0654835e-05
  4.7443202e-05   2.1911599e-05
  2.4057057e-02   6.5955544e-05
  1.8399813e+00   2.2084258e-05
 -6.7484006e-02   1.9446801e-04
  6.1311512e-06   2.9898707e-05
 -1.7561727e-06   2.3995389e-04
  1.2590803e-01   5.6562476e-05
 -3.9937410e-01   8.6000146e-05
 -3.2346793e-02   5.4613229e-05
 -1.4763029e-01   2.8488959e-05
  5.0751580e-04   1.7074404e-05
 -2.9691579e-04   3.2144788e-05
 -2.7598017e-01   6.4430395e-05
 -8.3836593e-04   8.9988607e-05
  1.4793538e-04   2.1501415e-05
 -3.7323288e-04   1.9749600e-06
  3.1737350e-03   3.2711803e-04
  2.1299198e-05   2.6217320e-05
  2.9165938e-04   1.3422704e-04
 -2.5355970e-04   7.0817237e-05
  2.6053915e-04   1.3249798e-04
  8.2351296e-04   9.4278612e-06
  5.2983713e-01   1.5513249e-05
 -6.2997037e-01   3.2103792e-06
 -3.1460813e-01   3.4248021e-06
  9.9663490e-01   1.2514486e-06
 -1.3645715e+00   2.1487015e-06
 -8.2267290e-01   1.0550951e-06
 -8.6682528e-02   1.4950045e-05
  3.8077122e-01   6.7161791e-06
 -1.4301218e+00   8.7331506e-07
  1.1145337e+00   2.4802364e-05
 -2.1085606e-04   2.4332730e-05
  7.9239076e-01   7.3987285e-05
  4.5455705e-05   6.6985012e-05
 -3.1821886e-01   9.0490292e-05
  1.6987622e-01   9.2263062e-06
  1.5083913e+00   2.1661624e-04
 -8.3055621e-01   3.6255506e-04
 -8.4971666e-01   8.6278618e-05
 -2.7025747e-01   6.4064811e-06