108
Lattice="7.384763602 0.000000000 -0.000000000 3.824265763 6.660622806 -0.000000000 0.774789421 -0.455048468 30.040448017" Energy=-768.289787850 Properties=species:S:1:pos:R:3:force:R:3 Virial="104.00258000 -22.69679000 -15.61386000 -22.69679000 -12.20433000 6.30917000 -15.61386000 6.30917000 59.15331000" pbc="T T T" Config_type=POSCAR-41_SCF weight=1.0
C      1.35150000      0.67353000      2.09785000     -5.06874000      1.96244100     -2.28009000
C      2.53702000      0.00527000      2.46497000      0.75029500     -0.94199500      1.36147700
C      2.52550000     -0.05675000      4.04565000      0.02406200      1.14017000     -0.34201300
C      2.72684000      1.46498000      4.49094000    -13.15557900     -6.86606000      5.59928000
C      2.59444000      2.92687000      1.96451000      0.14425400      0.29868900      7.28593400
C      3.94778000      2.17905000      2.49334000     -7.45454200      0.79787200      0.59280200
C      3.70166000      2.13212000      4.05941000     14.20671400      6.39433900     -3.93428200
C      3.89384000      3.66985000      4.47926000     -0.95912200     -1.78633500      2.23066300
C      3.85021000      5.15742000      1.96620000     -0.36591400     -0.34078900      7.52781900
C      5.12749000      4.43694000      2.48460000     -1.49389400      0.29536500     -0.65439700
C      5.19991000      4.37513000      3.99873000     -5.13149000      1.57619500      2.35210700
C      5.05807000      5.83918000      4.60201000      3.20152300      1.19093400     -5.45458100
C      3.71678000      0.79445000      1.92605000      3.25585100     -1.75736900      3.53270200
C      4.96543000     -0.00656000      2.50219000     -2.22974100     -1.88023000      0.13489400
C      8.84266000      6.55528000      4.06276000     -1.99718400      2.83853200      0.16711100
C      5.02593000      1.45158000      4.56469000      0.46941300     -0.78492000     -6.57753700
C      5.07018000      2.97325000      2.07602000      2.09917100     -1.51166700     -2.21171600
C      6.32973000      2.10995000      2.48647000     -3.29443700      3.27242000      0.88608100
C      6.35704000      2.23762000      4.02873000     -2.38185700     -2.88302800      1.41549600
C      6.32404000      3.67093000      4.59507000      1.89624100     -1.73556100     -0.81806000
C      6.27260000      5.24304000      1.97105000      2.28270300     -3.38990500     -1.06568900
C      7.47742000      4.28879000      2.50533000     -0.14686200      4.68861600     -1.30961900
C      7.50628000      4.39058000      3.99817000      1.64093700     -1.13242400      2.62011600
C      7.47039000      5.84752000      4.51229000      4.34595200     -0.70148200     -4.95762700
C      6.14922000      0.70851000      2.03490000      3.89131800     -1.33431400     -1.73485700
C      3.87512000      6.58722000      2.53752000      0.62070800      1.22931100     -0.25274600
C      7.52306000      0.01728000      4.09689000     -3.97721900     -3.83967000     -0.54365400
C      7.52798000      1.41467000      4.58140000      0.12090600      1.11703500     -2.80021500
C      7.43913000      2.90077000      1.96933000      2.90814000     -1.36885000     -0.21556500
C      8.66535000      2.15739000      2.55857000      3.02869500      0.13672900     -2.33871100
C      1.35952000      2.10695000      4.08209000      1.27140600      2.52470400     -0.46457400
C      8.81058000      3.60438000      4.54654000     -2.14112800      0.03542700     -0.81094600
C      8.66669000      5.13248000      2.06690000      3.95631400     -0.15269600     -0.59539400
C     10.01545000      4.43401000      2.63219000     -1.71020400     -1.35445200     -6.78291300
C      2.62963000      4.29263000      4.04067000      1.44331100      3.89391400      2.48654400
C     10.06189000      5.89521000      4.60644000     -0.17369400     -0.57775800     -9.19730000
C      1.54833000      0.54351000      8.71700000     -3.26741600      2.03791600      5.08023200
C      6.52829000      6.50630000      9.32912000     -0.55775700      0.90061500     -1.61837000
C      2.67266000     -0.16390000     10.83761000      0.76283800      0.62903200      1.13946700
C      2.72175000      1.34220000     11.37675000      1.90437700     -1.90864500     -3.82587000
C      2.72687000      2.85559000      8.80429000      0.75838300     -0.02422700     -2.58688300
C      3.92999000      2.02616000      9.19481000      2.00196000      1.70786400      1.84582400
C      4.03879000      2.00325000     10.70153000     -2.40226000      1.83479400      4.07497000
C      3.92630000      3.50405000     11.22156000      7.24616200     -0.83410300      1.73565000
C      4.03403000      5.04867000      8.62907000      0.29506900     -0.64550900     12.11480300
C      5.28003000      4.32236000      9.24114000     -1.87600000     -1.13384500     -0.65375100
C      5.29071000      4.25472000     10.77227000     -1.73829400     -0.49030600      0.24427400
C      5.35896000      5.63205000     11.36751000     -2.67053500      1.36181700    -13.53899700
C      3.92998000      0.59735000      8.80606000     -2.12582600     -0.80031800     -3.87825500
C      8.85903000      6.44157000      9.19467000      4.77077700      4.38909700      3.66981200
C      5.16508000     -0.05078000     10.86734000     -0.47230200     -5.43680800     -2.09689100
C      5.29254000      1.31771000     11.29346000     -5.85245700     -0.48626500      1.40951300
C      5.24051000      2.80030000      8.77023000     -0.03495700      0.57453900     -1.06219200
C      6.47730000      2.05784000      9.29158000     -1.76706200     -1.90772200     -0.13169300
C      6.43202000      1.92233000     10.86857000      6.53238900      6.34432500     -2.32546700
C      6.49715000      3.53614000     11.23289000      0.81389100     -1.01021700      0.46050900
C      6.46641000      5.08400000      8.81844000      1.00102800     -1.42515300     -4.14599200
C      7.70912000      4.28812000      9.17993000     -0.45868400      0.50694800      0.83770100
C      7.75096000      4.37423000     10.66838000      0.08727200     -3.48133600      4.02973200
C      7.74322000      5.81495000     11.27829000      1.21676500     -1.06867000      2.35606600
C      6.36755000      0.55952000      8.87149000      0.21566900     -0.00719300     -5.24493100
C      4.04844000      6.46012000      9.20053000      1.59960600      1.01294900      1.51264800
C      4.10937000      6.42299000     10.82175000      0.90442600      1.02060200     -0.56665800
C      7.76258000      1.28406000     11.33133000     -2.66088400     -1.09539800      0.31666200
C      7.72711000      2.75206000      8.77135000     -6.91338500      5.00075600     -2.56328600
C      8.84035000      2.15807000      9.13366000      7.59665000     -6.43747400      5.11408500
C      8.93080000      2.05787000     10.85156000     -0.59284500      0.33452000     -1.95059100
C      9.00358000      3.47189000     11.29406000     -2.56969200      3.37016800     -0.77169700
C      8.87669000      5.08554000      8.73540000      2.37827200     -2.95863700      1.00330800
C     10.17958000      4.34492000      9.27409000     -0.63464900     -1.11560800     -1.63507500
C      2.82704000      4.24232000     10.80454000     -3.04723800      3.10881900     -1.19655800
C     10.20275000      5.81635000     11.26592000      1.17692400     -2.75998900      2.08353800
H      1.17114000      0.64854000      1.00595000      0.69125400      0.30205900     -0.43693800
H      2.62172000      1.41354000      5.66383000      0.52678100      0.20691900     -1.32462300
H      2.56546000      2.95441000      0.97160000     -0.15065600      0.20319000     -4.52889500
H      3.82794000      3.69722000      5.64312000      0.52931700     -0.16940100     -1.30259000
H      3.76576000      5.12563000      0.97183000     -0.17400700     -0.04946700     -4.18571100
H      5.14041000      5.83974000      5.60080000      0.13824000     -0.16249100      4.08424600
H      3.79183000      0.80782000      0.87470000     -0.09852100     -0.18840600     -1.73097100
H      5.12636000      1.46137000      5.53003000      0.12137700      0.10418700      6.03760900
H      4.98468000      2.88214000      0.96036000      0.49792300      0.40247500      0.08156700
H      6.41513000      3.53920000      5.72930000     -0.56220500      0.71711300     -1.12196200
H      6.32802000      5.15245000      0.83348000     -0.14512500      0.37279400      0.90409200
H      7.56715000      5.81366000      5.48718000     -0.02344300     -0.22547900      5.47803800
H      6.22525000      0.72542000      0.87806000     -0.22719100     -0.14156400      1.11182500
H      7.57552000      1.38578000      5.59769000     -0.26432300      0.14585000      3.48705500
H      7.50762000      2.90130000      0.84705000     -0.06804700     -0.03854700      0.51900900
H      8.77461000      3.58191000      5.62929000      0.02437100      0.28306900      0.74349500
H      8.83224000      5.14928000      0.95656000     -0.47310400     -0.31236600      0.31067800
H     10.02784000      5.79049000      5.53590000     -0.21539300     -0.50580500      8.41295100
H      1.46204000      0.61414000      7.73031000      0.42176200     -0.33165700     -4.73527500
H      2.72082000      1.34769000     12.44146000      0.31670300      0.14570000      1.26112800
H      2.84360000      2.82131000      7.68615000     -0.40972800      0.41778100      0.07160400
H      4.17630000      3.59329000     12.33251000     -1.14590100     -0.69278100     -0.51583900
H      3.92401000      5.02904000      7.70988000     -0.49225800     -0.31622600     -9.10866700
H      5.39989000      5.75633000     12.24721000      0.19718400      0.73285000     12.57920300
H      3.87756000      0.55757000      7.61800000     -0.06039100     -0.00478400      1.59587300
H      5.18008000      1.24285000     12.39317000      0.09472900      0.57427400      0.22576500
H      5.23637000      2.85842000      7.63060000      0.26671000     -0.35247700      0.86365800
H      6.55014000      3.56219000     12.33554000     -0.02283500      0.20507100      0.14174300
H      6.38010000      5.13726000      7.59210000      0.46306400      0.00856000      2.27390100
H      7.77266000      5.65306000     12.47925000     -0.25407200      0.41783700     -2.07106400
H      6.38276000      0.56047000      7.63075000     -0.09152100      0.19136100      2.09824500
H      7.74688000      1.27057000     12.46970000      0.05004100     -0.07350600     -0.69957200
H      7.64425000      2.93467000      7.66948000     -0.07711300     -0.87503700     -0.06659500
H      8.95430000      3.51806000     12.39912000     -0.07450700      0.20315000      0.00491700
H      8.97814000      5.08323000      7.68749000      0.02217900     -0.01492600     -1.97976700
H     10.35546000      5.66381000     12.39249000     -0.82781600      0.66015300     -0.56430600
108
Lattice="7.645907279 -0.000000000 0.000000000 3.767771263 6.478933886 -0.000000000 0.519208307 0.123333892 29.396182792" Energy=-768.599384300 Properties=species:S:1:pos:R:3:force:R:3 Virial="12.39212000 8.65711000 -14.04050000 8.65711000 72.49961000 8.85767000 -14.04050000 8.85767000 87.79562000" pbc="T T T" Config_type=POSCAR-10_SCF weight=1.0
C      1.38039000      0.68261000      1.94029000     -5.34594600      1.96059200     -0.91889100
C      2.50438000      0.05289000      2.47708000      6.18114700     -2.29082800     -0.03316300
C      2.68244000      0.08635000      4.05694000     -1.66824400     -5.50984800     -4.26433000
C      2.68295000      1.41407000      4.41059000     -3.47067000      4.12719200      1.58136100
C      2.55627000      2.91844000      2.03136000      1.01736600     -3.29608000     -4.54880900
C      3.83987000      2.12300000      2.53880000     -0.19455400      2.30373700     -4.34411200
C      3.78463000      2.22009000      3.98221000      5.56978600     -0.69748100      1.35915300
C      3.85824000      3.65914000      4.55032000     -0.62117800     -0.28195500     -6.59196900
C      3.82253000      5.03647000      1.97726000     -0.49532400     -0.59678600     -2.28933500
C      5.13812000      4.34331000      2.43287000     -1.92112800     -0.88822900     -1.36651700
C      5.16503000      4.32335000      3.92943000     -0.74288900     -1.34456400      2.64889600
C      5.19957000      5.67647000      4.44167000     -2.47699800      4.62603000      2.92740600
C      3.88274000      0.71437000      1.94103000     -3.05711300      0.13840300      5.23280800
C      8.85174000      6.48205000      2.40478000      2.36389100     -0.49999100      1.22109900
C      8.96347000      6.44081000      3.97106000     -1.35888500      5.52291100     -2.36383200
C      5.24538000      1.46809000      4.40991000     -4.78864600     -1.33697400      3.17642300
C      5.06269000      2.82395000      1.92170000     -0.17864600      3.80592300      1.83148200
C      6.31258000      2.24988000      2.37611000      2.94673200     -3.01328600      1.18327700
C      6.39141000      2.19153000      4.04490000      3.13918600      0.55882100     -4.63022000
C      6.42405000      3.63889000      4.42832000     -0.85350500     -1.16062800      4.67830300
C      6.37442000      5.11589000      1.97786000     -0.71421000     -2.54492400     -3.01086200
C      7.61619000      4.22024000      2.47421000      1.66243400      6.12220800     -1.54209100
C      7.61320000      4.35023000      3.98038000      2.92504800     -1.61058900     -0.14671500
C      7.74457000      5.82705000      4.36433000     -3.55199400     -2.17668600      5.33074500
C      6.29270000      0.81367000      1.88099000      2.37982200     -2.42337000      5.51444900
C     11.40355000      6.43918000      2.37558000      0.87578700      2.78524600      1.87341900
C      3.78556000      6.40489000      3.97607000      1.47334800      2.58314900     -1.59059600
C      7.69374000      1.41648000      4.41348000      0.69528800      1.12413800      0.83017100
C      7.67284000      2.93248000      1.87185000     -0.99729400     -2.78107100     12.43178800
C      1.30884000      2.12306000      2.37957000     -0.33888800      2.29988000      0.74263000
C      1.37704000      2.21393000      3.89834000     -2.05116800     -5.06616500      1.17715500
C      9.04098000      3.51838000      4.47011000     -2.66964500      4.60598000     -1.48774000
C      8.93484000      5.00810000      2.07479000     -1.83003000      0.50709500     -6.38532200
C     10.18112000      4.30390000      2.42976000      1.37757700      1.53405400      0.39378900
C     10.14850000      4.39419000      3.88002000      2.35965400     -3.20385700      5.03613000
C     10.11115000      5.76942000      4.39834000      4.48292800     -1.47569900      1.19006200
C      1.30299000      0.74492000      8.59923000      5.33039200      2.40640700     -3.59977300
C      6.55850000      6.49496000      8.97676000     -3.89456500     -1.53520200      3.37173500
C      6.50106000      6.51558000     10.52762000      1.13133900     -0.51467700      1.37052300
C      2.72569000      1.46741000     10.99497000     -0.32463700      0.19869100      1.90330100
C      2.65261000      2.98296000      8.53521000     -0.34020100     -3.55164000      5.13229200
C      3.92949000      2.20894000      9.15069000      1.09293400     -0.28010100     -5.29738600
C      3.99709000      2.16002000     10.56855000     -1.25540500      1.10521700      1.84788300
C      3.99279000      3.55521000     11.07016000     -0.27576700      3.93436600     -0.71451100
C      3.88020000      5.11831000      8.39721000      1.56871700     -1.65059200      8.13677600
C      5.24667000      4.33051000      9.07356000      0.60594700      1.17835600     -2.05757600
C      5.26948000      4.35452000     10.59466000     -2.19979900      0.18348500      0.06391100
C      5.28653000      5.79915000     11.16050000     -0.84733200      0.00222300     -6.39735500
C      4.02704000      0.69810000      8.66702000     -2.95439000      4.95390900     -3.05374600
C      5.24189000      0.09828000      8.97264000      4.75103200     -4.52072400      4.17904900
C      9.07700000      6.45573000     10.59078000     -0.33847800      4.09096500     -1.36269600
C      5.24615000      1.50234000     10.98407000      1.86425400     -2.00477000      3.15378200
C      5.30330000      2.88332000      8.58037000     -6.79569400      2.10431200     -2.48908500
C      6.41964000      2.20109000      8.98796000      6.69387900      0.68657500      2.79415600
C      6.50116000      2.24536000     10.51059000      0.27163300     -2.30094700      0.82229000
C      6.47285000      3.62744000     10.98139000      3.55010800      1.37568900      2.55681900
C      6.61585000      4.99865000      8.58274000     -3.96055700      3.39865100     -1.01568400
C      7.86849000      4.37894000      9.06013000     -2.25167900      4.33304000      1.63648800
C      7.84199000      4.39132000     10.58638000     -1.22886600     -1.34184500     -0.33377900
C      7.84549000      5.84221000     11.05165000     -2.09420400     -1.40560600     -6.05621300
C      6.62134000      0.77286000      8.62069000     -4.96157400      1.10727700     -2.95616500
C     11.56841000      6.50942000      9.02026000      0.11782600     -1.62167400      0.02021500
C      0.27553000      0.06936000     10.49625000     -2.86920600     -2.01656900      4.15953200
C      7.79785000      1.47097000     11.02293000      1.35722400      1.68644400      0.40524300
C      7.76784000      3.14005000      8.57904000     -0.38574600    -11.55291400     -1.80432500
C      8.91344000      2.23526000      9.03499000      4.32179800      0.53768300      0.53019400
C      1.49064000      2.25868000     10.58151000     -2.84531800     -2.60915400     -1.52719700
C      9.09078000      3.62135000     11.04615000      0.46704000      2.89402700     -0.49701100
C      9.02805000      5.06945000      8.56679000      1.94580000      2.88649700     -2.91775000
C     10.27903000      4.36770000      8.95213000      1.95107200      2.19199700      1.90146400
C     10.34647000      4.44754000     10.53268000      0.46454900     -5.44139200      0.08107300
C     10.29000000      5.76952000     11.06492000      3.04916200      2.37490000     -2.07435500
H      1.31470000      0.69054000      0.84113000      0.51043300     -0.21124200     -0.32157300
H      2.62028000      1.47636000      5.45227000     -0.21022700      0.22945500      2.42721100
H      2.66531000      2.87972000      0.85736000     -0.21160300      0.21770400      1.37410500
H      3.82761000      3.57652000      5.56147000     -0.01375700      0.33079700      3.28414000
H      3.80206000      5.07537000      0.85063000      0.13372500     -0.54827200      0.27703100
H      5.07170000      5.80702000      5.60565000      0.45283400     -0.88018600     -1.47689700
H      3.85113000      0.65089000      0.94569000     -0.19400300      0.38128300     -4.39814400
H      5.20174000      1.45761000      5.53955000     -0.08325000     -0.13170300     -0.31826800
H      5.02880000      2.88137000      0.85584000     -0.30782000     -0.20023200     -1.23477000
H      6.47511000      3.60384000      5.70154000     -0.50116400      0.40421600     -2.72734900
H      6.27503000      5.11538000      0.68360000      0.64393600      0.06824800      3.10596800
H      7.67472000      5.81156000      5.60170000      0.46117700     -0.06793900     -2.19012500
H      6.33899000      0.71451000      0.90078000     -0.00782600     -0.04429700     -5.19429500
H      7.69179000      1.58055000      5.52512000      0.25727800     -0.73436400     -0.19167400
H      7.63307000      2.80818000      0.98967000     -0.23315500     -0.52961700    -12.35822100
H      8.98000000      3.63464000      5.53816000      0.27550800     -0.45521300      0.83808900
H      8.96442000      5.00020000      0.80956000     -0.33534300     -0.11109100      2.38927600
H     10.25472000      5.74085000      5.47054000     -0.74438900     -0.12022500      1.00361200
H      1.38398000      0.78134000      7.48035000     -0.33803900     -0.05326500      0.13667100
H      2.71074000      1.47146000     12.12325000      0.03669200     -0.10980200     -0.34699700
H      2.71042000      2.87905000      7.55863000      0.29932100     -0.43643500     -5.18273300
H      4.04421000      3.63913000     12.14655000     -0.40899300     -0.25883100      0.89231500
H      3.92040000      5.09116000      7.42028000      0.36997400      0.08294200     -5.33472700
H      5.25249000      5.82931000     12.17974000     -0.03998800      0.19269300      3.08260400
H      3.93540000      0.76628000      7.60431000      0.40028400      0.36422500     -1.79436600
H      5.29014000      1.49449000     12.13344000     -0.13957200      0.16937400     -0.84325700
H      5.16711000      2.94169000      7.42825000      0.33829100     -0.30378700      1.26567700
H      6.59242000      3.63157000     12.09899000     -0.48229800     -0.17761200     -0.15725000
H      6.50107000      5.04754000      7.48226000      0.56977000     -0.53636200     -0.11921800
H      7.74350000      5.74850000     11.99516000     -0.32435600      0.01800000      7.34795800
H      6.49225000      0.85405000      7.53214000      0.75859000     -0.53582600     -0.74493900
H      7.91139000      1.49811000     12.14150000     -0.80619400     -0.26017700     -0.37636100
H      7.78375000      2.88588000      7.52638000     -0.07252200      1.14154600     -1.11718600
H      9.16688000      3.69181000     12.10123000     -0.06869800     -0.11625800      1.75060000
H      9.10122000      5.13160000      7.44250000     -0.70149500     -0.41092800      0.22694700
H     10.42239000      5.81349000     12.09850000     -0.11745000     -0.05607100      2.26798700
108
Lattice="7.678300610 -0.000000000 0.000000000 3.942507178 6.438139971 -0.000000000 -0.067258230 -0.087073831 30.197553418" Energy=-771.638553890 Properties=species:S:1:pos:R:3:force:R:3 Virial="-13.58658000 -21.44477000 -8.96661000 -21.44477000 78.72266000 3.52424000 -8.96661000 3.52424000 7.33978000" pbc="T T T" Config_type=POSCAR-30_SCF weight=1.0
C      1.31398000      0.64115000      2.09070000     -1.23041300     -0.22912800     -4.03846900
C      6.55681000      6.32328000      2.52290000     -1.44593400      5.16445000      0.95715500
C      2.58790000      0.07250000      4.09742000     -0.61051400     -5.32673400     -0.91863600
C      2.52411000      1.44086000      4.54735000      2.45956000      0.40346600      1.16920100
C      2.56084000      2.79502000      1.98106000     -0.20884900      1.66794200      2.43665000
C      3.80877000      2.18272000      2.52461000      1.77671500     -2.75621900     -2.41666300
C      3.89806000      2.15899000      3.97553000     -2.66739200     -0.32461200      4.21417500
C      3.77924000      3.52945000      4.55365000      2.32190000      2.20027300     -1.07541500
C      3.91475000      5.07881000      1.91896000     -0.59405300     -2.82031100      1.96471200
C      5.25199000      4.32401000      2.59015000     -3.64362500     -1.30101400     -5.27792600
C      5.14423000      4.35885000      3.99708000      0.55563000     -2.88727500      5.63231500
C      5.26402000      5.69196000      4.53463000     -1.88970800      3.99897300      1.62825600
C      3.91374000      0.65131000      2.03291000     -4.54385800      1.62383000     -2.13762400
C      9.02319000      6.36364000      2.50120000      2.15278900      2.85838600     -0.96267100
C      5.14605000      0.04893000      4.01116000     -0.33370800     -2.84673200      2.78195900
C      5.13248000      1.43900000      4.48259000      0.98803400      0.78150000      2.69583100
C      5.07754000      2.85149000      2.07512000      2.72890700      1.25834800      0.54520200
C      6.46061000      2.13291000      2.57140000     -3.53491800      1.28309300     -3.35355000
C      6.43228000      2.18594000      4.06004000     -1.22215100     -0.24024100      0.96111700
C      6.37551000      3.59012000      4.66284000      2.05167600     -0.12159900     -5.23156700
C      6.41200000      5.01122000      2.00832000      3.80822100     -2.27232100      2.18340300
C      7.91186000      4.30287000      2.53955000     -9.61233200     -4.26549100      0.07922300
C      7.80186000      4.25516000      4.08210000     -1.94351300      1.31330200      0.13059900
C      7.73961000      5.71105000      4.58163000      2.36580400      0.90012000     -0.65846100
C      6.34537000      0.70687000      1.96582000      1.43929400      0.35399500      3.40966400
C      7.60758000      0.02664000      2.45857000      1.92830700     -1.42583700      1.18333900
C      0.01811000      0.00317000      4.09887000     -0.65203200      0.43236100     -1.53611900
C      7.64322000      1.49691000      4.50287000      2.93971700     -2.69318600      4.10808600
C      7.62155000      2.87094000      1.93490000      3.67462700     -0.88451600      5.58135600
C      1.30361000      2.02319000      2.52681000     -0.03502100      3.85285100     -2.48688200
C      1.33262000      2.12690000      4.01050000     -2.11644600      0.39023400      2.05229600
C      9.06803000      3.54218000      4.54373000     -3.54749600      0.61149000      0.02689200
C      8.93358000      4.99837000      1.99052000      6.79642000      0.19865000     -2.66603800
C     10.30869000      4.29937000      2.45619000     -1.35850000     -0.49504600      0.26872200
C     10.20615000      4.25480000      4.03897000      4.83373200      2.46250600      0.04142000
C     10.40815000      5.75572000      4.62668000     -2.83611100     -1.15806500     -4.87945100
C      1.20791000      0.71597000      8.79551000      1.47116000     -3.32084700     -1.60187400
C      2.51964000     -0.01181000      9.37228000      0.02297900     -1.16441900     -6.39557900
C      2.46333000     -0.02644000     10.77004000      4.30529700      0.64192100      4.81733400
C      2.60378000      1.38687000     11.28809000     -0.90138600      0.33614600      2.25130100
C      2.59594000      2.84684000      8.86422000     -1.08594200     -0.62520200     -3.48668500
C      3.86408000      2.17568000      9.31820000      0.57479900     -2.16899800     -0.59817000
C      3.88316000      2.12604000     10.88891000     -0.99861600     -1.52736200     -2.44140300
C      3.78832000      3.52728000     11.29911000      1.31840300      2.56486500      2.97702500
C      3.90100000      4.90459000      8.84944000     -0.07492700      2.79322000     -2.68606000
C      5.21407000      4.22259000      9.33645000     -2.66005900      2.43166300     -1.12366600
C      5.08245000      4.31922000     10.81945000      2.39391800     -3.80833600      2.17613400
C      5.22065000      5.74104000     11.27745000     -0.73871900     -3.26254500      3.65882800
C      3.90051000      0.67675000      8.78416000     -3.84219900      1.93453000      2.56760600
C      5.09678000      0.02886000      9.36889000      0.30606100     -2.34694500     -4.28238700
C      9.12143000      6.38476000     10.85690000     -5.14118400      0.85742200     -0.32384600
C      5.11032000      1.35366000     11.29293000      2.25434900      1.39867300      3.86174700
C      5.17364000      2.85851000      8.84728000     -2.22127000     -0.14161900     -0.40843800
C      6.36660000      2.24566000      9.40347000      2.27229900     -5.06400600     -3.56994100
C      6.48541000      2.11587000     10.87238000     -3.79395000     -0.93716800      0.55734900
C      6.43065000      3.47095000     11.38896000     -1.38605300      4.05344200     -1.86282300
C      6.41938000      4.92039000      8.80632000      1.81215300      2.98767800      0.02965200
C      7.76171000      4.30533000      9.36701000     -2.69836300     -1.48775200     -4.43267900
C      7.59116000      4.29622000     10.82314000      4.06057200     -2.25897800      2.20644000
C      7.73077000      5.66476000     11.40587000     -0.51251800      0.91669300     -7.10317500
C      6.31728000      0.73439000      8.78193000      1.27150100     -0.87297100      0.22984700
C     11.51710000      6.38879000      9.21523000      2.38470600      0.66489900      2.43479300
C      3.98202000      6.29802000     10.88685000     -5.48309200      4.94153700     -2.05085400
C      7.66027000      1.38678000     11.31425000      3.24764000     -1.81217100      3.19355900
C      7.62838000      2.82137000      8.85100000      2.97831300      1.10268300     -1.52628000
C      1.30162000      2.05840000      9.24586000     -1.26574900      3.65827000      2.52076600
C      1.37585000      2.07642000     10.82683000     -3.70074300      0.57848500     -0.26663100
C      8.92027000      3.48886000     11.30878000      0.70933600      2.47950000      0.41832500
C      8.98913000      4.99472000      8.74581000      1.24719300      0.59381200      4.13826400
C     10.28548000      4.29714000      9.29217000     -1.79291400     -1.35666100     -0.63348000
C     10.16940000      4.30673000     10.81918000      1.17803500     -5.53293000      0.02586800
C     10.23560000      5.61327000     11.26835000      4.51649700      3.42076500      6.16239100
H      1.21323000      0.59316000      0.84921000      0.74688000      0.36783900      2.30689200
H      2.53296000      1.47749000      5.70685000      0.06235000      0.01971000     -1.41135000
H      2.56545000      2.93032000      0.94252000      0.02416200     -0.63824500     -2.14287700
H      3.80082000      3.55697000      5.67438000      0.10208400     -0.17057800     -0.59994700
H      3.90443000      4.95284000      0.79478000      0.30976400      0.41820000      0.76188900
H      5.19510000      5.76354000      5.67679000      0.29112600     -0.50658500     -0.92067600
H      3.68616000      0.64857000      0.85744000      1.23566700      0.07351000      1.76607300